protein dna data file produced on: Mon Dec  2 18:18:03 2019

1179 atoms
180 bonds
255 angles
212 dihedrals

38 atom types
2 bond types
18 angle types
2 dihedral types

-100.0 100.0 xlo xhi
-100.0 100.0 ylo yhi
-100.0 100.0 zlo zhi

Masses

   1   94.9696
   2   83.1104
   3  134.1220
   4  125.1078
   5  150.1214
   6  110.0964
   7  134.1220
   8  125.1078
   9  150.1214
  10  110.0964
  11  134.1220
  12  125.1078
  13  150.1214
  14  110.0964
  15   71.0788
  16  156.1875
  17  114.1038
  18  115.0886
  19  103.1388
  20  129.1155
  21  128.1307
  22   57.0519
  23  137.1411
  24  113.1594
  25  113.1594
  26  128.1741
  27  131.1926
  28  147.1766
  29   97.1167
  30   87.0782
  31  101.1051
  32  186.2132
  33  163.1760
  34   99.1326
  35   22.9898
  36   24.3050
  37   35.4530
  38   49.4000

Atoms

      1       1       1      33    0.0000 -1.680000000e+00 3.490000000e+00 4.332000000e+01
      2       1       2      16    1.0000 -2.840000000e+00 5.610000000e+00 4.027000000e+01
      3       1       3      22    0.0000 -1.160000000e+00 8.160000000e+00 3.791000000e+01
      4       1       4      23    0.0000 -1.960000000e+00 1.163000000e+01 3.636000000e+01
      5       1       5      16    1.0000 1.000000000e-01 1.455000000e+01 3.660000000e+01
      6       1       6      28    0.0000 -2.000000000e-01 1.772000000e+01 3.860000000e+01
      7       1       7      31    0.0000 -5.600000000e-01 2.102000000e+01 3.679000000e+01
      8       1       8      26    1.0000 2.820000000e+00 2.270000000e+01 3.586000000e+01
      9       1       9      20   -1.0000 2.400000000e+00 2.562000000e+01 3.832000000e+01
     10       1      10      17    0.0000 2.050000000e+00 2.297000000e+01 4.106000000e+01
     11       1      11      34    0.0000 5.040000000e+00 2.077000000e+01 4.024000000e+01
     12       1      12      16    1.0000 6.850000000e+00 2.411000000e+01 4.000000000e+01
     13       1      13      24    0.0000 5.980000000e+00 2.528000000e+01 4.350000000e+01
     14       1      14      25    0.0000 6.450000000e+00 2.185000000e+01 4.506000000e+01
     15       1      15      20   -1.0000 9.890000000e+00 2.169000000e+01 4.340000000e+01
     16       1      16      30    0.0000 1.068000000e+01 2.515000000e+01 4.461000000e+01
     17       1      17      32    0.0000 9.940000000e+00 2.414000000e+01 4.813000000e+01
     18       1      18      28    0.0000 1.207000000e+01 2.099000000e+01 4.806000000e+01
     19       1      19      15    0.0000 1.506000000e+01 2.294000000e+01 4.659000000e+01
     20       1      20      26    1.0000 1.482000000e+01 2.594000000e+01 4.902000000e+01
     21       1      21      17    0.0000 1.464000000e+01 2.312000000e+01 5.162000000e+01
     22       1      22      24    0.0000 1.725000000e+01 2.035000000e+01 5.068000000e+01
     23       1      23      20   -1.0000 1.905000000e+01 2.031000000e+01 5.410000000e+01
     24       1      24      17    0.0000 1.605000000e+01 1.887000000e+01 5.588000000e+01
     25       1      25      29    0.0000 1.306000000e+01 1.864000000e+01 5.336000000e+01
     26       1      26      33    0.0000 1.043000000e+01 1.746000000e+01 5.577000000e+01
     27       1      27      25    0.0000 7.170000000e+00 1.941000000e+01 5.577000000e+01
     28       1      28      18   -1.0000 6.310000000e+00 2.129000000e+01 5.902000000e+01
     29       1      29      31    0.0000 3.080000000e+00 2.285000000e+01 6.023000000e+01
     30       1      30      26    1.0000 3.510000000e+00 2.633000000e+01 5.877000000e+01
     31       1      31      22    0.0000 5.260000000e+00 2.480000000e+01 5.581000000e+01
     32       1      32      25    0.0000 2.340000000e+00 2.255000000e+01 5.480000000e+01
     33       1      33      20   -1.0000 -1.200000000e-01 2.534000000e+01 5.520000000e+01
     34       1      34      17    0.0000 1.650000000e+00 2.757000000e+01 5.270000000e+01
     35       1      35      25    0.0000 1.930000000e+00 2.495000000e+01 5.002000000e+01
     36       1      36      27    0.0000 -1.730000000e+00 2.410000000e+01 5.077000000e+01
     37       1      37      26    1.0000 -2.430000000e+00 2.781000000e+01 5.041000000e+01
     38       1      38      17    0.0000 -5.400000000e-01 2.768000000e+01 4.707000000e+01
     39       1      39      31    0.0000 -1.820000000e+00 2.455000000e+01 4.535000000e+01
     40       1      40      30    0.0000 -5.010000000e+00 2.287000000e+01 4.437000000e+01
     41       1      41      25    0.0000 -3.650000000e+00 1.962000000e+01 4.607000000e+01
     42       1      42      30    0.0000 -5.340000000e+00 1.773000000e+01 4.890000000e+01
     43       1      43      16    1.0000 -2.890000000e+00 1.778000000e+01 5.195000000e+01
     44       1      44      24    0.0000 -2.380000000e+00 1.392000000e+01 5.156000000e+01
     45       1      45      21    0.0000 -1.110000000e+00 1.458000000e+01 4.805000000e+01
     46       1      46      24    0.0000 1.490000000e+00 1.711000000e+01 4.925000000e+01
     47       1      47      26    1.0000 2.560000000e+00 1.476000000e+01 5.200000000e+01
     48       1      48      17    0.0000 2.920000000e+00 1.206000000e+01 4.944000000e+01
     49       1      49      32    0.0000 4.790000000e+00 1.420000000e+01 4.688000000e+01
     50       1      50      34    0.0000 7.460000000e+00 1.543000000e+01 4.930000000e+01
     51       1      51      30    0.0000 8.050000000e+00 1.178000000e+01 5.050000000e+01
     52       1      52      17    0.0000 8.230000000e+00 1.040000000e+01 4.693000000e+01
     53       1      53      16    1.0000 1.047000000e+01 1.338000000e+01 4.600000000e+01
     54       1      54      16    1.0000 1.292000000e+01 1.236000000e+01 4.873000000e+01
     55       1      55      16    1.0000 1.307000000e+01 8.780000000e+00 4.738000000e+01
     56       1      56      26    1.0000 1.403000000e+01 1.038000000e+01 4.401000000e+01
     57       1      57      20   -1.0000 1.675000000e+01 1.258000000e+01 4.545000000e+01
     58       1      58      26    1.0000 1.799000000e+01 9.280000000e+00 4.703000000e+01
     59       1      59      31    0.0000 1.912000000e+01 8.400000000e+00 4.349000000e+01
     60       2      60       2    0.0000 4.721025000e+01 6.611468000e+00 -7.686480000e-01
     61       2      60       7    0.0000 4.955984200e+01 2.425299000e+00 1.221300000e-02
     62       2      61       1   -1.0000 4.526689100e+01 7.366864000e+00 1.413629000e+00
     63       2      61       2    0.0000 4.461160800e+01 3.868585000e+00 2.439399000e+00
     64       2      61       6    0.0000 4.848608900e+01 2.206975000e+00 3.284253000e+00
     65       2      62       1   -1.0000 4.163026100e+01 3.086495000e+00 5.559634000e+00
     66       2      62       2    0.0000 4.307005700e+01 -2.280380000e-01 6.574417000e+00
     67       2      62       3    0.0000 4.789069500e+01 3.140070000e-01 6.923878000e+00
     68       2      63       1   -1.0000 4.182198500e+01 -1.817133000e+00 9.166918000e+00
     69       2      63       2    0.0000 4.489928600e+01 -3.805392000e+00 9.860574000e+00
     70       2      63       4    0.0000 4.776632000e+01 -5.358250000e-01 1.037456400e+01
     71       2      64       1   -1.0000 4.444535300e+01 -6.305540000e+00 1.344228700e+01
     72       2      64       2    0.0000 4.806561800e+01 -6.222168000e+00 1.427701500e+01
     73       2      64       5    0.0000 4.992272200e+01 -1.619212000e+00 1.396156200e+01
     74       2      65       1   -1.0000 4.945822600e+01 -7.895408000e+00 1.673725700e+01
     75       2      65       2    0.0000 5.259302500e+01 -5.840299000e+00 1.702837500e+01
     76       2      65       4    0.0000 5.075212000e+01 -1.878269000e+00 1.731904700e+01
     77       2      66       1   -1.0000 5.518504500e+01 -6.751134000e+00 2.019369000e+01
     78       2      66       2    0.0000 5.654652700e+01 -3.268932000e+00 2.050379900e+01
     79       2      66       3    0.0000 5.281278000e+01 -1.523370000e-01 2.048506400e+01
     80       2      67       1   -1.0000 5.920646000e+01 -2.396244000e+00 2.290134400e+01
     81       2      67       2    0.0000 5.832610200e+01 1.240992000e+00 2.303383800e+01
     82       2      67       3    0.0000 5.350256700e+01 1.673142000e+00 2.348199900e+01
     83       2      68       1   -1.0000 5.993366500e+01 3.109358000e+00 2.520883400e+01
     84       2      68       2    0.0000 5.728641500e+01 5.726345000e+00 2.543102800e+01
     85       2      68       4    0.0000 5.390613800e+01 3.226333000e+00 2.665505900e+01
     86       2      69       1   -1.0000 5.784674300e+01 8.799192000e+00 2.771647000e+01
     87       2      69       2    0.0000 5.419140100e+01 9.529791000e+00 2.820149100e+01
     88       2      69       4    0.0000 5.294738700e+01 5.587688000e+00 2.964565600e+01
     89       2      70       1   -1.0000 5.351994700e+01 1.235570000e+01 3.050539800e+01
     90       2      70       2    0.0000 5.023490000e+01 1.098312800e+01 3.155059600e+01
     91       2      70       6    0.0000 5.114227400e+01 6.964396000e+00 3.278041900e+01
     92       2      71       1   -1.0000 4.765156600e+01 1.315289500e+01 3.435272000e+01
     93       2      71       2    0.0000 4.577885800e+01 1.011077500e+01 3.550471600e+01
     94       2      71       3    0.0000 4.904713000e+01 6.607140000e+00 3.633972100e+01
     95       2      72       1   -1.0000 4.360502300e+01 1.037141500e+01 3.795673900e+01
     96       2      72       2    0.0000 4.378700800e+01 6.783654000e+00 3.895534900e+01
     97       2      72       4    0.0000 4.808047300e+01 6.478698000e+00 3.975930100e+01
     98       2      73       1   -1.0000 4.157335400e+01 5.512329000e+00 4.186485400e+01
     99       2      73       2    0.0000 4.379468700e+01 2.607026000e+00 4.273436200e+01
    100       2      73       4    0.0000 4.753630700e+01 4.816013000e+00 4.327762300e+01
    101       2      74       1   -1.0000 4.294375800e+01 2.538170000e-01 4.568747400e+01
    102       2      74       2    0.0000 4.648816400e+01 -8.565340000e-01 4.626631600e+01
    103       2      74       4    0.0000 4.831949900e+01 3.094817000e+00 4.672168200e+01
    104       2      75       1   -1.0000 4.730420000e+01 -3.487201000e+00 4.942572300e+01
    105       2      75       2    0.0000 5.082609600e+01 -2.297353000e+00 4.993063900e+01
    106       2      75       3    0.0000 5.080940600e+01 2.565941000e+00 5.000364800e+01
    107       2      76       1   -1.0000 5.226236400e+01 -3.565980000e+00 5.226241700e+01
    108       2      76       2    0.0000 5.455985500e+01 -7.066650000e-01 5.277631300e+01
    109       2      76       6    0.0000 5.199856000e+01 2.715924000e+00 5.323919200e+01
    110       2      77       1   -1.0000 5.768481200e+01 -1.007875000e+00 5.583867300e+01
    111       2      77       2    0.0000 5.805734500e+01 2.698410000e+00 5.630194900e+01
    112       2      77       3    0.0000 5.358798300e+01 4.597502000e+00 5.657343100e+01
    113       2      78       1   -1.0000 5.989484400e+01 3.528975000e+00 5.854767900e+01
    114       2      78       2    0.0000 5.819521300e+01 6.768743000e+00 5.912720100e+01
    115       2      78       6    0.0000 5.406723100e+01 5.763257000e+00 5.978573900e+01
    116       2      79       1   -1.0000 6.023635500e+01 9.354944000e+00 6.244538400e+01
    117       2      79       2    0.0000 5.711896100e+01 1.119914400e+01 6.312852700e+01
    118       2      79       5    0.0000 5.325505600e+01 8.076739000e+00 6.336315600e+01
    119       2      80       1   -1.0000 5.709983400e+01 1.382456500e+01 6.505480300e+01
    120       2      80       2    0.0000 5.346595100e+01 1.354252500e+01 6.569308800e+01
    121       2      80      14    0.0000 5.294081600e+01 9.355106000e+00 6.651688200e+01
    122       3      81       2    0.0000 4.437487100e+01 3.597504000e+00 6.637536700e+01
    123       3      81       9    0.0000 4.893248600e+01 5.580073000e+00 6.619453800e+01
    124       3      82       1   -1.0000 4.213672400e+01 4.682528000e+00 6.427376300e+01
    125       3      82       2    0.0000 4.408631500e+01 7.731538000e+00 6.350485100e+01
    126       3      82       6    0.0000 4.807558600e+01 6.226317000e+00 6.294987000e+01
    127       3      83       1   -1.0000 4.232834000e+01 1.024530200e+01 5.997576300e+01
    128       3      83       2    0.0000 4.562668100e+01 1.167172200e+01 5.915746600e+01
    129       3      83       5    0.0000 4.912148000e+01 8.133612000e+00 5.919813400e+01
    130       3      84       1   -1.0000 4.621219600e+01 1.388891100e+01 5.680512300e+01
    131       3      84       2    0.0000 4.989012300e+01 1.322409600e+01 5.639594900e+01
    132       3      84       4    0.0000 4.971383600e+01 8.881517000e+00 5.586366600e+01
    133       3      85       1   -1.0000 5.153144200e+01 1.534233100e+01 5.291680000e+01
    134       3      85       2    0.0000 5.412604400e+01 1.276749700e+01 5.224604000e+01
    135       3      85       5    0.0000 5.224619300e+01 8.166679000e+00 5.243355400e+01
    136       3      86       1   -1.0000 5.644575700e+01 1.300662600e+01 4.993266100e+01
    137       3      86       2    0.0000 5.728970500e+01 9.350558000e+00 4.969115900e+01
    138       3      86       4    0.0000 5.323987500e+01 7.780967000e+00 4.913332000e+01
    139       3      87       1   -1.0000 5.998720700e+01 8.208402000e+00 4.669397300e+01
    140       3      87       2    0.0000 5.857015000e+01 4.758886000e+00 4.628568400e+01
    141       3      87       3    0.0000 5.372852000e+01 5.112253000e+00 4.598866100e+01
    142       3      88       1   -1.0000 6.002929600e+01 2.286424000e+00 4.396847700e+01
    143       3      88       2    0.0000 5.688381000e+01 2.835300000e-01 4.362222200e+01
    144       3      88       3    0.0000 5.315229500e+01 3.328208000e+00 4.294231000e+01
    145       3      89       1   -1.0000 5.678254900e+01 -2.704672000e+00 4.146028700e+01
    146       3      89       2    0.0000 5.308321100e+01 -2.560742000e+00 4.089655000e+01
    147       3      89       3    0.0000 5.182698600e+01 2.027694000e+00 3.988505000e+01
    148       3      90       1   -1.0000 5.179414800e+01 -4.688712000e+00 3.874772100e+01
    149       3      90       2    0.0000 4.877785800e+01 -2.629019000e+00 3.799682500e+01
    150       3      90       4    0.0000 5.073653600e+01 1.046862000e+00 3.664573700e+01
    151       3      91       1   -1.0000 4.626024400e+01 -4.495463000e+00 3.492088800e+01
    152       3      91       2    0.0000 4.495889900e+01 -1.254971000e+00 3.364980300e+01
    153       3      91       5    0.0000 4.860000100e+01 2.076032000e+00 3.303109900e+01
    154       3      92       1   -1.0000 4.213736300e+01 -9.495270000e-01 3.122085100e+01
    155       3      92       2    0.0000 4.303037400e+01 2.511425000e+00 3.012001000e+01
    156       3      92       3    0.0000 4.786731000e+01 2.749266000e+00 2.966943000e+01
    157       3      93       1   -1.0000 4.119461800e+01 4.152330000e+00 2.737226100e+01
    158       3      93       2    0.0000 4.401764800e+01 6.419888000e+00 2.641684100e+01
    159       3      93       3    0.0000 4.813104000e+01 3.828543000e+00 2.626924400e+01
    160       3      94       1   -1.0000 4.363300600e+01 8.266720000e+00 2.372450100e+01
    161       3      94       2    0.0000 4.728101900e+01 8.691382000e+00 2.307957600e+01
    162       3      94       4    0.0000 4.845352900e+01 4.482448000e+00 2.278894500e+01
    163       3      95       1   -1.0000 4.843627600e+01 1.083335000e+01 2.007553700e+01
    164       3      95       2    0.0000 5.177759300e+01 9.147248000e+00 1.972846800e+01
    165       3      95       4    0.0000 5.036675000e+01 5.014944000e+00 1.939863100e+01
    166       3      96       1   -1.0000 5.433637100e+01 1.032686200e+01 1.662548900e+01
    167       3      96       2    0.0000 5.606004700e+01 7.006048000e+00 1.635299300e+01
    168       3      96       3    0.0000 5.267191700e+01 3.517355000e+00 1.628530600e+01
    169       3      97       1   -1.0000 5.807950200e+01 6.814569000e+00 1.411790200e+01
    170       3      97       2    0.0000 5.776483400e+01 3.141521000e+00 1.375874400e+01
    171       3      97       6    0.0000 5.356979500e+01 2.435017000e+00 1.313418700e+01
    172       3      98       1   -1.0000 6.035709300e+01 1.049942000e+00 1.090580000e+01
    173       3      98       2    0.0000 5.807051700e+01 -1.894950000e+00 1.047316600e+01
    174       3      98       3    0.0000 5.355614800e+01 -1.743700000e-01 9.912971000e+00
    175       3      99       1   -1.0000 5.879184500e+01 -4.199275000e+00 8.242090000e+00
    176       3      99       2    0.0000 5.528310700e+01 -5.397925000e+00 7.845024000e+00
    177       3      99       4    0.0000 5.336741900e+01 -1.637466000e+00 6.677687000e+00
    178       3     100       1   -1.0000 5.497446700e+01 -8.534758000e+00 4.787556000e+00
    179       3     100       2    0.0000 5.148481800e+01 -7.653105000e+00 3.862958000e+00
    180       3     100       5    0.0000 5.091486200e+01 -2.745134000e+00 3.294292000e+00
    181       3     101       1   -1.0000 4.964096000e+01 -9.317209000e+00 1.713019000e+00
    182       3     101       2    0.0000 4.715188200e+01 -6.596525000e+00 9.779680000e-01
    183       3     101      12    0.0000 4.996434500e+01 -3.380030000e+00 1.981600000e-02
184 4 102 35 1.0 -84.0 -84.0 -84.0
185 5 103 35 1.0 -84.0 -84.0 -69.0
186 6 104 35 1.0 -84.0 -84.0 -54.0
187 7 105 35 1.0 -84.0 -84.0 -39.0
188 8 106 35 1.0 -84.0 -84.0 -24.0
189 9 107 35 1.0 -84.0 -84.0 -9.0
190 10 108 35 1.0 -84.0 -84.0 6.0
191 11 109 35 1.0 -84.0 -84.0 21.0
192 12 110 35 1.0 -84.0 -84.0 36.0
193 13 111 35 1.0 -84.0 -84.0 51.0
194 14 112 35 1.0 -84.0 -84.0 66.0
195 15 113 35 1.0 -84.0 -84.0 81.0
196 16 114 35 1.0 -84.0 -69.0 -84.0
197 17 115 35 1.0 -84.0 -69.0 -69.0
198 18 116 35 1.0 -84.0 -69.0 -54.0
199 19 117 35 1.0 -84.0 -69.0 -39.0
200 20 118 35 1.0 -84.0 -69.0 -24.0
201 21 119 35 1.0 -84.0 -69.0 -9.0
202 22 120 35 1.0 -84.0 -69.0 6.0
203 23 121 35 1.0 -84.0 -69.0 21.0
204 24 122 35 1.0 -84.0 -69.0 36.0
205 25 123 35 1.0 -84.0 -69.0 51.0
206 26 124 35 1.0 -84.0 -69.0 66.0
207 27 125 35 1.0 -84.0 -69.0 81.0
208 28 126 35 1.0 -84.0 -54.0 -84.0
209 29 127 35 1.0 -84.0 -54.0 -69.0
210 30 128 35 1.0 -84.0 -54.0 -54.0
211 31 129 35 1.0 -84.0 -54.0 -39.0
212 32 130 35 1.0 -84.0 -54.0 -24.0
213 33 131 35 1.0 -84.0 -54.0 -9.0
214 34 132 35 1.0 -84.0 -54.0 6.0
215 35 133 35 1.0 -84.0 -54.0 21.0
216 36 134 35 1.0 -84.0 -54.0 36.0
217 37 135 35 1.0 -84.0 -54.0 51.0
218 38 136 35 1.0 -84.0 -54.0 66.0
219 39 137 35 1.0 -84.0 -54.0 81.0
220 40 138 35 1.0 -84.0 -39.0 -84.0
221 41 139 35 1.0 -84.0 -39.0 -69.0
222 42 140 35 1.0 -84.0 -39.0 -54.0
223 43 141 35 1.0 -84.0 -39.0 -39.0
224 44 142 35 1.0 -84.0 -39.0 -24.0
225 45 143 35 1.0 -84.0 -39.0 -9.0
226 46 144 35 1.0 -84.0 -39.0 6.0
227 47 145 35 1.0 -84.0 -39.0 21.0
228 48 146 35 1.0 -84.0 -39.0 36.0
229 49 147 35 1.0 -84.0 -39.0 51.0
230 50 148 35 1.0 -84.0 -39.0 66.0
231 51 149 35 1.0 -84.0 -39.0 81.0
232 52 150 35 1.0 -84.0 -24.0 -84.0
233 53 151 35 1.0 -84.0 -24.0 -69.0
234 54 152 35 1.0 -84.0 -24.0 -54.0
235 55 153 35 1.0 -84.0 -24.0 -39.0
236 56 154 35 1.0 -84.0 -24.0 -24.0
237 57 155 35 1.0 -84.0 -24.0 -9.0
238 58 156 35 1.0 -84.0 -24.0 6.0
239 59 157 35 1.0 -84.0 -24.0 21.0
240 60 158 35 1.0 -84.0 -24.0 36.0
241 61 159 35 1.0 -84.0 -24.0 51.0
242 62 160 35 1.0 -84.0 -24.0 66.0
243 63 161 35 1.0 -84.0 -24.0 81.0
244 64 162 35 1.0 -84.0 -9.0 -84.0
245 65 163 35 1.0 -84.0 -9.0 -69.0
246 66 164 35 1.0 -84.0 -9.0 -54.0
247 67 165 35 1.0 -84.0 -9.0 -39.0
248 68 166 35 1.0 -84.0 -9.0 -24.0
249 69 167 35 1.0 -84.0 -9.0 -9.0
250 70 168 35 1.0 -84.0 -9.0 6.0
251 71 169 35 1.0 -84.0 -9.0 21.0
252 72 170 35 1.0 -84.0 -9.0 36.0
253 73 171 35 1.0 -84.0 -9.0 51.0
254 74 172 35 1.0 -84.0 -9.0 66.0
255 75 173 35 1.0 -84.0 -9.0 81.0
256 76 174 35 1.0 -84.0 6.0 -84.0
257 77 175 35 1.0 -84.0 6.0 -69.0
258 78 176 35 1.0 -84.0 6.0 -54.0
259 79 177 35 1.0 -84.0 6.0 -39.0
260 80 178 35 1.0 -84.0 6.0 -24.0
261 81 179 35 1.0 -84.0 6.0 -9.0
262 82 180 35 1.0 -84.0 6.0 6.0
263 83 181 35 1.0 -84.0 6.0 21.0
264 84 182 35 1.0 -84.0 6.0 36.0
265 85 183 35 1.0 -84.0 6.0 51.0
266 86 184 35 1.0 -84.0 6.0 66.0
267 87 185 35 1.0 -84.0 6.0 81.0
268 88 186 35 1.0 -84.0 21.0 -84.0
269 89 187 35 1.0 -84.0 21.0 -69.0
270 90 188 35 1.0 -84.0 21.0 -54.0
271 91 189 35 1.0 -84.0 21.0 -39.0
272 92 190 35 1.0 -84.0 21.0 -24.0
273 93 191 35 1.0 -84.0 21.0 -9.0
274 94 192 35 1.0 -84.0 21.0 6.0
275 95 193 35 1.0 -84.0 21.0 21.0
276 96 194 35 1.0 -84.0 21.0 36.0
277 97 195 35 1.0 -84.0 21.0 51.0
278 98 196 35 1.0 -84.0 21.0 66.0
279 99 197 35 1.0 -84.0 21.0 81.0
280 100 198 35 1.0 -84.0 36.0 -84.0
281 101 199 35 1.0 -84.0 36.0 -69.0
282 102 200 35 1.0 -84.0 36.0 -54.0
283 103 201 35 1.0 -84.0 36.0 -39.0
284 104 202 35 1.0 -84.0 36.0 -24.0
285 105 203 35 1.0 -84.0 36.0 -9.0
286 106 204 35 1.0 -84.0 36.0 6.0
287 107 205 35 1.0 -84.0 36.0 21.0
288 108 206 35 1.0 -84.0 36.0 36.0
289 109 207 35 1.0 -84.0 36.0 51.0
290 110 208 35 1.0 -84.0 36.0 66.0
291 111 209 35 1.0 -84.0 36.0 81.0
292 112 210 35 1.0 -84.0 51.0 -84.0
293 113 211 35 1.0 -84.0 51.0 -69.0
294 114 212 35 1.0 -84.0 51.0 -54.0
295 115 213 35 1.0 -84.0 51.0 -39.0
296 116 214 35 1.0 -84.0 51.0 -24.0
297 117 215 35 1.0 -84.0 51.0 -9.0
298 118 216 35 1.0 -84.0 51.0 6.0
299 119 217 35 1.0 -84.0 51.0 21.0
300 120 218 35 1.0 -84.0 51.0 36.0
301 121 219 35 1.0 -84.0 51.0 51.0
302 122 220 35 1.0 -84.0 51.0 66.0
303 123 221 35 1.0 -84.0 51.0 81.0
304 124 222 35 1.0 -84.0 66.0 -84.0
305 125 223 35 1.0 -84.0 66.0 -69.0
306 126 224 35 1.0 -84.0 66.0 -54.0
307 127 225 35 1.0 -84.0 66.0 -39.0
308 128 226 35 1.0 -84.0 66.0 -24.0
309 129 227 35 1.0 -84.0 66.0 -9.0
310 130 228 35 1.0 -84.0 66.0 6.0
311 131 229 35 1.0 -84.0 66.0 21.0
312 132 230 35 1.0 -84.0 66.0 36.0
313 133 231 35 1.0 -84.0 66.0 51.0
314 134 232 35 1.0 -84.0 66.0 66.0
315 135 233 35 1.0 -84.0 66.0 81.0
316 136 234 35 1.0 -84.0 81.0 -84.0
317 137 235 35 1.0 -84.0 81.0 -69.0
318 138 236 35 1.0 -84.0 81.0 -54.0
319 139 237 35 1.0 -84.0 81.0 -39.0
320 140 238 35 1.0 -84.0 81.0 -24.0
321 141 239 35 1.0 -84.0 81.0 -9.0
322 142 240 35 1.0 -84.0 81.0 6.0
323 143 241 35 1.0 -84.0 81.0 21.0
324 144 242 35 1.0 -84.0 81.0 36.0
325 145 243 35 1.0 -84.0 81.0 51.0
326 146 244 35 1.0 -84.0 81.0 66.0
327 147 245 35 1.0 -84.0 81.0 81.0
328 148 246 35 1.0 -69.0 -84.0 -84.0
329 149 247 35 1.0 -69.0 -84.0 -69.0
330 150 248 35 1.0 -69.0 -84.0 -54.0
331 151 249 35 1.0 -69.0 -84.0 -39.0
332 152 250 35 1.0 -69.0 -84.0 -24.0
333 153 251 35 1.0 -69.0 -84.0 -9.0
334 154 252 35 1.0 -69.0 -84.0 6.0
335 155 253 35 1.0 -69.0 -84.0 21.0
336 156 254 35 1.0 -69.0 -84.0 36.0
337 157 255 35 1.0 -69.0 -84.0 51.0
338 158 256 35 1.0 -69.0 -84.0 66.0
339 159 257 35 1.0 -69.0 -84.0 81.0
340 160 258 35 1.0 -69.0 -69.0 -84.0
341 161 259 35 1.0 -69.0 -69.0 -69.0
342 162 260 35 1.0 -69.0 -69.0 -54.0
343 163 261 35 1.0 -69.0 -69.0 -39.0
344 164 262 35 1.0 -69.0 -69.0 -24.0
345 165 263 35 1.0 -69.0 -69.0 -9.0
346 166 264 35 1.0 -69.0 -69.0 6.0
347 167 265 35 1.0 -69.0 -69.0 21.0
348 168 266 35 1.0 -69.0 -69.0 36.0
349 169 267 35 1.0 -69.0 -69.0 51.0
350 170 268 35 1.0 -69.0 -69.0 66.0
351 171 269 35 1.0 -69.0 -69.0 81.0
352 172 270 35 1.0 -69.0 -54.0 -84.0
353 173 271 35 1.0 -69.0 -54.0 -69.0
354 174 272 35 1.0 -69.0 -54.0 -54.0
355 175 273 35 1.0 -69.0 -54.0 -39.0
356 176 274 35 1.0 -69.0 -54.0 -24.0
357 177 275 35 1.0 -69.0 -54.0 -9.0
358 178 276 35 1.0 -69.0 -54.0 6.0
359 179 277 35 1.0 -69.0 -54.0 21.0
360 180 278 35 1.0 -69.0 -54.0 36.0
361 181 279 35 1.0 -69.0 -54.0 51.0
362 182 280 35 1.0 -69.0 -54.0 66.0
363 183 281 35 1.0 -69.0 -54.0 81.0
364 184 282 35 1.0 -69.0 -39.0 -84.0
365 185 283 35 1.0 -69.0 -39.0 -69.0
366 186 284 35 1.0 -69.0 -39.0 -54.0
367 187 285 35 1.0 -69.0 -39.0 -39.0
368 188 286 35 1.0 -69.0 -39.0 -24.0
369 189 287 35 1.0 -69.0 -39.0 -9.0
370 190 288 35 1.0 -69.0 -39.0 6.0
371 191 289 35 1.0 -69.0 -39.0 21.0
372 192 290 35 1.0 -69.0 -39.0 36.0
373 193 291 35 1.0 -69.0 -39.0 51.0
374 194 292 35 1.0 -69.0 -39.0 66.0
375 195 293 35 1.0 -69.0 -39.0 81.0
376 196 294 35 1.0 -69.0 -24.0 -84.0
377 197 295 35 1.0 -69.0 -24.0 -69.0
378 198 296 35 1.0 -69.0 -24.0 -54.0
379 199 297 35 1.0 -69.0 -24.0 -39.0
380 200 298 35 1.0 -69.0 -24.0 -24.0
381 201 299 35 1.0 -69.0 -24.0 -9.0
382 202 300 35 1.0 -69.0 -24.0 6.0
383 203 301 35 1.0 -69.0 -24.0 21.0
384 204 302 35 1.0 -69.0 -24.0 36.0
385 205 303 35 1.0 -69.0 -24.0 51.0
386 206 304 35 1.0 -69.0 -24.0 66.0
387 207 305 35 1.0 -69.0 -24.0 81.0
388 208 306 35 1.0 -69.0 -9.0 -84.0
389 209 307 35 1.0 -69.0 -9.0 -69.0
390 210 308 35 1.0 -69.0 -9.0 -54.0
391 211 309 35 1.0 -69.0 -9.0 -39.0
392 212 310 35 1.0 -69.0 -9.0 -24.0
393 213 311 35 1.0 -69.0 -9.0 -9.0
394 214 312 35 1.0 -69.0 -9.0 6.0
395 215 313 35 1.0 -69.0 -9.0 21.0
396 216 314 35 1.0 -69.0 -9.0 36.0
397 217 315 35 1.0 -69.0 -9.0 51.0
398 218 316 35 1.0 -69.0 -9.0 66.0
399 219 317 35 1.0 -69.0 -9.0 81.0
400 220 318 35 1.0 -69.0 6.0 -84.0
401 221 319 35 1.0 -69.0 6.0 -69.0
402 222 320 35 1.0 -69.0 6.0 -54.0
403 223 321 35 1.0 -69.0 6.0 -39.0
404 224 322 35 1.0 -69.0 6.0 -24.0
405 225 323 35 1.0 -69.0 6.0 -9.0
406 226 324 35 1.0 -69.0 6.0 6.0
407 227 325 35 1.0 -69.0 6.0 21.0
408 228 326 35 1.0 -69.0 6.0 36.0
409 229 327 35 1.0 -69.0 6.0 51.0
410 230 328 35 1.0 -69.0 6.0 66.0
411 231 329 35 1.0 -69.0 6.0 81.0
412 232 330 35 1.0 -69.0 21.0 -84.0
413 233 331 35 1.0 -69.0 21.0 -69.0
414 234 332 35 1.0 -69.0 21.0 -54.0
415 235 333 35 1.0 -69.0 21.0 -39.0
416 236 334 35 1.0 -69.0 21.0 -24.0
417 237 335 35 1.0 -69.0 21.0 -9.0
418 238 336 35 1.0 -69.0 21.0 6.0
419 239 337 35 1.0 -69.0 21.0 21.0
420 240 338 35 1.0 -69.0 21.0 36.0
421 241 339 35 1.0 -69.0 21.0 51.0
422 242 340 35 1.0 -69.0 21.0 66.0
423 243 341 35 1.0 -69.0 21.0 81.0
424 244 342 35 1.0 -69.0 36.0 -84.0
425 245 343 35 1.0 -69.0 36.0 -69.0
426 246 344 35 1.0 -69.0 36.0 -54.0
427 247 345 35 1.0 -69.0 36.0 -39.0
428 248 346 35 1.0 -69.0 36.0 -24.0
429 249 347 35 1.0 -69.0 36.0 -9.0
430 250 348 35 1.0 -69.0 36.0 6.0
431 251 349 35 1.0 -69.0 36.0 21.0
432 252 350 35 1.0 -69.0 36.0 36.0
433 253 351 35 1.0 -69.0 36.0 51.0
434 254 352 35 1.0 -69.0 36.0 66.0
435 255 353 35 1.0 -69.0 36.0 81.0
436 256 354 35 1.0 -69.0 51.0 -84.0
437 257 355 35 1.0 -69.0 51.0 -69.0
438 258 356 35 1.0 -69.0 51.0 -54.0
439 259 357 35 1.0 -69.0 51.0 -39.0
440 260 358 35 1.0 -69.0 51.0 -24.0
441 261 359 35 1.0 -69.0 51.0 -9.0
442 262 360 35 1.0 -69.0 51.0 6.0
443 263 361 35 1.0 -69.0 51.0 21.0
444 264 362 35 1.0 -69.0 51.0 36.0
445 265 363 35 1.0 -69.0 51.0 51.0
446 266 364 35 1.0 -69.0 51.0 66.0
447 267 365 35 1.0 -69.0 51.0 81.0
448 268 366 35 1.0 -69.0 66.0 -84.0
449 269 367 35 1.0 -69.0 66.0 -69.0
450 270 368 35 1.0 -69.0 66.0 -54.0
451 271 369 35 1.0 -69.0 66.0 -39.0
452 272 370 35 1.0 -69.0 66.0 -24.0
453 273 371 35 1.0 -69.0 66.0 -9.0
454 274 372 35 1.0 -69.0 66.0 6.0
455 275 373 35 1.0 -69.0 66.0 21.0
456 276 374 35 1.0 -69.0 66.0 36.0
457 277 375 35 1.0 -69.0 66.0 51.0
458 278 376 35 1.0 -69.0 66.0 66.0
459 279 377 35 1.0 -69.0 66.0 81.0
460 280 378 35 1.0 -69.0 81.0 -84.0
461 281 379 35 1.0 -69.0 81.0 -69.0
462 282 380 35 1.0 -69.0 81.0 -54.0
463 283 381 35 1.0 -69.0 81.0 -39.0
464 284 382 35 1.0 -69.0 81.0 -24.0
465 285 383 35 1.0 -69.0 81.0 -9.0
466 286 384 35 1.0 -69.0 81.0 6.0
467 287 385 35 1.0 -69.0 81.0 21.0
468 288 386 35 1.0 -69.0 81.0 36.0
469 289 387 35 1.0 -69.0 81.0 51.0
470 290 388 35 1.0 -69.0 81.0 66.0
471 291 389 35 1.0 -69.0 81.0 81.0
472 292 390 35 1.0 -54.0 -84.0 -84.0
473 293 391 35 1.0 -54.0 -84.0 -69.0
474 294 392 35 1.0 -54.0 -84.0 -54.0
475 295 393 35 1.0 -54.0 -84.0 -39.0
476 296 394 35 1.0 -54.0 -84.0 -24.0
477 297 395 35 1.0 -54.0 -84.0 -9.0
478 298 396 35 1.0 -54.0 -84.0 6.0
479 299 397 35 1.0 -54.0 -84.0 21.0
480 300 398 35 1.0 -54.0 -84.0 36.0
481 301 399 35 1.0 -54.0 -84.0 51.0
482 302 400 35 1.0 -54.0 -84.0 66.0
483 303 401 35 1.0 -54.0 -84.0 81.0
484 304 402 35 1.0 -54.0 -69.0 -84.0
485 305 403 35 1.0 -54.0 -69.0 -69.0
486 306 404 35 1.0 -54.0 -69.0 -54.0
487 307 405 35 1.0 -54.0 -69.0 -39.0
488 308 406 35 1.0 -54.0 -69.0 -24.0
489 309 407 35 1.0 -54.0 -69.0 -9.0
490 310 408 35 1.0 -54.0 -69.0 6.0
491 311 409 35 1.0 -54.0 -69.0 21.0
492 312 410 35 1.0 -54.0 -69.0 36.0
493 313 411 35 1.0 -54.0 -69.0 51.0
494 314 412 35 1.0 -54.0 -69.0 66.0
495 315 413 35 1.0 -54.0 -69.0 81.0
496 316 414 35 1.0 -54.0 -54.0 -84.0
497 317 415 35 1.0 -54.0 -54.0 -69.0
498 318 416 35 1.0 -54.0 -54.0 -54.0
499 319 417 35 1.0 -54.0 -54.0 -39.0
500 320 418 35 1.0 -54.0 -54.0 -24.0
501 321 419 35 1.0 -54.0 -54.0 -9.0
502 322 420 35 1.0 -54.0 -54.0 6.0
503 323 421 35 1.0 -54.0 -54.0 21.0
504 324 422 35 1.0 -54.0 -54.0 36.0
505 325 423 35 1.0 -54.0 -54.0 51.0
506 326 424 35 1.0 -54.0 -54.0 66.0
507 327 425 35 1.0 -54.0 -54.0 81.0
508 328 426 35 1.0 -54.0 -39.0 -84.0
509 329 427 35 1.0 -54.0 -39.0 -69.0
510 330 428 35 1.0 -54.0 -39.0 -54.0
511 331 429 35 1.0 -54.0 -39.0 -39.0
512 332 430 35 1.0 -54.0 -39.0 -24.0
513 333 431 35 1.0 -54.0 -39.0 -9.0
514 334 432 35 1.0 -54.0 -39.0 6.0
515 335 433 35 1.0 -54.0 -39.0 21.0
516 336 434 35 1.0 -54.0 -39.0 36.0
517 337 435 35 1.0 -54.0 -39.0 51.0
518 338 436 35 1.0 -54.0 -39.0 66.0
519 339 437 35 1.0 -54.0 -39.0 81.0
520 340 438 35 1.0 -54.0 -24.0 -84.0
521 341 439 35 1.0 -54.0 -24.0 -69.0
522 342 440 35 1.0 -54.0 -24.0 -54.0
523 343 441 35 1.0 -54.0 -24.0 -39.0
524 344 442 35 1.0 -54.0 -24.0 -24.0
525 345 443 35 1.0 -54.0 -24.0 -9.0
526 346 444 35 1.0 -54.0 -24.0 6.0
527 347 445 35 1.0 -54.0 -24.0 21.0
528 348 446 35 1.0 -54.0 -24.0 36.0
529 349 447 35 1.0 -54.0 -24.0 51.0
530 350 448 35 1.0 -54.0 -24.0 66.0
531 351 449 35 1.0 -54.0 -24.0 81.0
532 352 450 35 1.0 -54.0 -9.0 -84.0
533 353 451 35 1.0 -54.0 -9.0 -69.0
534 354 452 35 1.0 -54.0 -9.0 -54.0
535 355 453 35 1.0 -54.0 -9.0 -39.0
536 356 454 35 1.0 -54.0 -9.0 -24.0
537 357 455 35 1.0 -54.0 -9.0 -9.0
538 358 456 35 1.0 -54.0 -9.0 6.0
539 359 457 35 1.0 -54.0 -9.0 21.0