protein dna data file produced on: Mon Dec  2 18:18:03 2019

1179 atoms
180 bonds
255 angles
212 dihedrals

38 atom types
2 bond types
18 angle types
2 dihedral types

-100.0 100.0 xlo xhi
-100.0 100.0 ylo yhi
-100.0 100.0 zlo zhi

Masses

   1   94.9696
   2   83.1104
   3  134.1220
   4  125.1078
   5  150.1214
   6  110.0964
   7  134.1220
   8  125.1078
   9  150.1214
  10  110.0964
  11  134.1220
  12  125.1078
  13  150.1214
  14  110.0964
  15   71.0788
  16  156.1875
  17  114.1038
  18  115.0886
  19  103.1388
  20  129.1155
  21  128.1307
  22   57.0519
  23  137.1411
  24  113.1594
  25  113.1594
  26  128.1741
  27  131.1926
  28  147.1766
  29   97.1167
  30   87.0782
  31  101.1051
  32  186.2132
  33  163.1760
  34   99.1326
  35   22.9898
  36   24.3050
  37   35.4530
  38   49.4000

Atoms

      1       1      33        0.0      -1.68       3.49      43.32
      2       1      16        1.0      -2.84       5.61      40.27
      3       1      22        0.0      -1.16       8.16      37.91
      4       1      23        0.0      -1.96      11.63      36.36
      5       1      16        1.0        0.1      14.55       36.6
      6       1      28        0.0       -0.2      17.72       38.6
      7       1      31        0.0      -0.56      21.02      36.79
      8       1      26        1.0       2.82       22.7      35.86
      9       1      20       -1.0        2.4      25.62      38.32
     10       1      17        0.0       2.05      22.97      41.06
     11       1      34        0.0       5.04      20.77      40.24
     12       1      16        1.0       6.85      24.11       40.0
     13       1      24        0.0       5.98      25.28       43.5
     14       1      25        0.0       6.45      21.85      45.06
     15       1      20       -1.0       9.89      21.69       43.4
     16       1      30        0.0      10.68      25.15      44.61
     17       1      32        0.0       9.94      24.14      48.13
     18       1      28        0.0      12.07      20.99      48.06
     19       1      15        0.0      15.06      22.94      46.59
     20       1      26        1.0      14.82      25.94      49.02
     21       1      17        0.0      14.64      23.12      51.62
     22       1      24        0.0      17.25      20.35      50.68
     23       1      20       -1.0      19.05      20.31       54.1
     24       1      17        0.0      16.05      18.87      55.88
     25       1      29        0.0      13.06      18.64      53.36
     26       1      33        0.0      10.43      17.46      55.77
     27       1      25        0.0       7.17      19.41      55.77
     28       1      18       -1.0       6.31      21.29      59.02
     29       1      31        0.0       3.08      22.85      60.23
     30       1      26        1.0       3.51      26.33      58.77
     31       1      22        0.0       5.26       24.8      55.81
     32       1      25        0.0       2.34      22.55       54.8
     33       1      20       -1.0      -0.12      25.34       55.2
     34       1      17        0.0       1.65      27.57       52.7
     35       1      25        0.0       1.93      24.95      50.02
     36       1      27        0.0      -1.73       24.1      50.77
     37       1      26        1.0      -2.43      27.81      50.41
     38       1      17        0.0      -0.54      27.68      47.07
     39       1      31        0.0      -1.82      24.55      45.35
     40       1      30        0.0      -5.01      22.87      44.37
     41       1      25        0.0      -3.65      19.62      46.07
     42       1      30        0.0      -5.34      17.73       48.9
     43       1      16        1.0      -2.89      17.78      51.95
     44       1      24        0.0      -2.38      13.92      51.56
     45       1      21        0.0      -1.11      14.58      48.05
     46       1      24        0.0       1.49      17.11      49.25
     47       1      26        1.0       2.56      14.76       52.0
     48       1      17        0.0       2.92      12.06      49.44
     49       1      32        0.0       4.79       14.2      46.88
     50       1      34        0.0       7.46      15.43       49.3
     51       1      30        0.0       8.05      11.78       50.5
     52       1      17        0.0       8.23       10.4      46.93
     53       1      16        1.0      10.47      13.38       46.0
     54       1      16        1.0      12.92      12.36      48.73
     55       1      16        1.0      13.07       8.78      47.38
     56       1      26        1.0      14.03      10.38      44.01
     57       1      20       -1.0      16.75      12.58      45.45
     58       1      26        1.0      17.99       9.28      47.03
     59       1      31        0.0      19.12        8.4      43.49
     60       2       2        0.0   47.21025   6.611468  -0.768648
     61       2       7        0.0  49.559842   2.425299   0.012213
     62       2       1       -1.0  45.266891   7.366864   1.413629
     63       2       2        0.0  44.611608   3.868585   2.439399
     64       2       6        0.0  48.486089   2.206975   3.284253
     65       2       1       -1.0  41.630261   3.086495   5.559634
     66       2       2        0.0  43.070057  -0.228038   6.574417
     67       2       3        0.0  47.890695   0.314007   6.923878
     68       2       1       -1.0  41.821985  -1.817133   9.166918
     69       2       2        0.0  44.899286  -3.805392   9.860574
     70       2       4        0.0   47.76632  -0.535825  10.374564
     71       2       1       -1.0  44.445353   -6.30554  13.442287
     72       2       2        0.0  48.065618  -6.222168  14.277015
     73       2       5        0.0  49.922722  -1.619212  13.961562
     74       2       1       -1.0  49.458226  -7.895408  16.737257
     75       2       2        0.0  52.593025  -5.840299  17.028375
     76       2       4        0.0   50.75212  -1.878269  17.319047
     77       2       1       -1.0  55.185045  -6.751134   20.19369
     78       2       2        0.0  56.546527  -3.268932  20.503799
     79       2       3        0.0   52.81278  -0.152337  20.485064
     80       2       1       -1.0   59.20646  -2.396244  22.901344
     81       2       2        0.0  58.326102   1.240992  23.033838
     82       2       3        0.0  53.502567   1.673142  23.481999
     83       2       1       -1.0  59.933665   3.109358  25.208834
     84       2       2        0.0  57.286415   5.726345  25.431028
     85       2       4        0.0  53.906138   3.226333  26.655059
     86       2       1       -1.0  57.846743   8.799192   27.71647
     87       2       2        0.0  54.191401   9.529791  28.201491
     88       2       4        0.0  52.947387   5.587688  29.645656
     89       2       1       -1.0  53.519947    12.3557  30.505398
     90       2       2        0.0    50.2349  10.983128  31.550596
     91       2       6        0.0  51.142274   6.964396  32.780419
     92       2       1       -1.0  47.651566  13.152895   34.35272
     93       2       2        0.0  45.778858  10.110775  35.504716
     94       2       3        0.0   49.04713    6.60714  36.339721
     95       2       1       -1.0  43.605023  10.371415  37.956739
     96       2       2        0.0  43.787008   6.783654  38.955349
     97       2       4        0.0  48.080473   6.478698  39.759301
     98       2       1       -1.0  41.573354   5.512329  41.864854
     99       2       2        0.0  43.794687   2.607026  42.734362
    100       2       4        0.0  47.536307   4.816013  43.277623
    101       2       1       -1.0  42.943758   0.253817  45.687474
    102       2       2        0.0  46.488164  -0.856534  46.266316
    103       2       4        0.0  48.319499   3.094817  46.721682
    104       2       1       -1.0    47.3042  -3.487201  49.425723
    105       2       2        0.0  50.826096  -2.297353  49.930639
    106       2       3        0.0  50.809406   2.565941  50.003648
    107       2       1       -1.0  52.262364   -3.56598  52.262417
    108       2       2        0.0  54.559855  -0.706665  52.776313
    109       2       6        0.0   51.99856   2.715924  53.239192
    110       2       1       -1.0  57.684812  -1.007875  55.838673
    111       2       2        0.0  58.057345    2.69841  56.301949
    112       2       3        0.0  53.587983   4.597502  56.573431
    113       2       1       -1.0  59.894844   3.528975  58.547679
    114       2       2        0.0  58.195213   6.768743  59.127201
    115       2       6        0.0  54.067231   5.763257  59.785739
    116       2       1       -1.0  60.236355   9.354944  62.445384
    117       2       2        0.0  57.118961  11.199144  63.128527
    118       2       5        0.0  53.255056   8.076739  63.363156
    119       2       1       -1.0  57.099834  13.824565  65.054803
    120       2       2        0.0  53.465951  13.542525  65.693088
    121       2      14        0.0  52.940816   9.355106  66.516882
    122       3       2        0.0  44.374871   3.597504  66.375367
    123       3       9        0.0  48.932486   5.580073  66.194538
    124       3       1       -1.0  42.136724   4.682528  64.273763
    125       3       2        0.0  44.086315   7.731538  63.504851
    126       3       6        0.0  48.075586   6.226317   62.94987
    127       3       1       -1.0   42.32834  10.245302  59.975763
    128       3       2        0.0  45.626681  11.671722  59.157466
    129       3       5        0.0   49.12148   8.133612  59.198134
    130       3       1       -1.0  46.212196  13.888911  56.805123
    131       3       2        0.0  49.890123  13.224096  56.395949
    132       3       4        0.0  49.713836   8.881517  55.863666
    133       3       1       -1.0  51.531442  15.342331    52.9168
    134       3       2        0.0  54.126044  12.767497   52.24604
    135       3       5        0.0  52.246193   8.166679  52.433554
    136       3       1       -1.0  56.445757  13.006626  49.932661
    137       3       2        0.0  57.289705   9.350558  49.691159
    138       3       4        0.0  53.239875   7.780967   49.13332
    139       3       1       -1.0  59.987207   8.208402  46.693973
    140       3       2        0.0   58.57015   4.758886  46.285684
    141       3       3        0.0   53.72852   5.112253  45.988661
    142       3       1       -1.0  60.029296   2.286424  43.968477
    143       3       2        0.0   56.88381    0.28353  43.622222
    144       3       3        0.0  53.152295   3.328208   42.94231
    145       3       1       -1.0  56.782549  -2.704672  41.460287
    146       3       2        0.0  53.083211  -2.560742   40.89655
    147       3       3        0.0  51.826986   2.027694   39.88505
    148       3       1       -1.0  51.794148  -4.688712  38.747721
    149       3       2        0.0  48.777858  -2.629019  37.996825
    150       3       4        0.0  50.736536   1.046862  36.645737
    151       3       1       -1.0  46.260244  -4.495463  34.920888
    152       3       2        0.0  44.958899  -1.254971  33.649803
    153       3       5        0.0  48.600001   2.076032  33.031099
    154       3       1       -1.0  42.137363  -0.949527  31.220851
    155       3       2        0.0  43.030374   2.511425   30.12001
    156       3       3        0.0   47.86731   2.749266   29.66943
    157       3       1       -1.0  41.194618    4.15233  27.372261
    158       3       2        0.0  44.017648   6.419888  26.416841
    159       3       3        0.0   48.13104   3.828543  26.269244
    160       3       1       -1.0  43.633006    8.26672  23.724501
    161       3       2        0.0  47.281019   8.691382  23.079576
    162       3       4        0.0  48.453529   4.482448  22.788945
    163       3       1       -1.0  48.436276   10.83335  20.075537
    164       3       2        0.0  51.777593   9.147248  19.728468
    165       3       4        0.0   50.36675   5.014944  19.398631
    166       3       1       -1.0  54.336371  10.326862  16.625489
    167       3       2        0.0  56.060047   7.006048  16.352993
    168       3       3        0.0  52.671917   3.517355  16.285306
    169       3       1       -1.0  58.079502   6.814569  14.117902
    170       3       2        0.0  57.764834   3.141521  13.758744
    171       3       6        0.0  53.569795   2.435017  13.134187
    172       3       1       -1.0  60.357093   1.049942    10.9058
    173       3       2        0.0  58.070517   -1.89495  10.473166
    174       3       3        0.0  53.556148   -0.17437   9.912971
    175       3       1       -1.0  58.791845  -4.199275    8.24209
    176       3       2        0.0  55.283107  -5.397925   7.845024
    177       3       4        0.0  53.367419  -1.637466   6.677687
    178       3       1       -1.0  54.974467  -8.534758   4.787556
    179       3       2        0.0  51.484818  -7.653105   3.862958
    180       3       5        0.0  50.914862  -2.745134   3.294292
    181       3       1       -1.0   49.64096  -9.317209   1.713019
    182       3       2        0.0  47.151882  -6.596525   0.977968
    183       3      12        0.0  49.964345   -3.38003   0.019816
    184       4      35        1.0      -84.0      -84.0      -84.0
    185       5      35        1.0      -84.0      -84.0      -69.0
    186       6      35        1.0      -84.0      -84.0      -54.0
    187       7      35        1.0      -84.0      -84.0      -39.0
    188       8      35        1.0      -84.0      -84.0      -24.0
    189       9      35        1.0      -84.0      -84.0       -9.0
    190      10      35        1.0      -84.0      -84.0        6.0
    191      11      35        1.0      -84.0      -84.0       21.0
    192      12      35        1.0      -84.0      -84.0       36.0
    193      13      35        1.0      -84.0      -84.0       51.0
    194      14      35        1.0      -84.0      -84.0       66.0
    195      15      35        1.0      -84.0      -84.0       81.0
    196      16      35        1.0      -84.0      -69.0      -84.0
    197      17      35        1.0      -84.0      -69.0      -69.0
    198      18      35        1.0      -84.0      -69.0      -54.0
    199      19      35        1.0      -84.0      -69.0      -39.0
    200      20      35        1.0      -84.0      -69.0      -24.0
    201      21      35        1.0      -84.0      -69.0       -9.0
    202      22      35        1.0      -84.0      -69.0        6.0
    203      23      35        1.0      -84.0      -69.0       21.0
    204      24      35        1.0      -84.0      -69.0       36.0
    205      25      35        1.0      -84.0      -69.0       51.0
    206      26      35        1.0      -84.0      -69.0       66.0
    207      27      35        1.0      -84.0      -69.0       81.0
    208      28      35        1.0      -84.0      -54.0      -84.0
    209      29      35        1.0      -84.0      -54.0      -69.0
    210      30      35        1.0      -84.0      -54.0      -54.0
    211      31      35        1.0      -84.0      -54.0      -39.0
    212      32      35        1.0      -84.0      -54.0      -24.0
    213      33      35        1.0      -84.0      -54.0       -9.0
    214      34      35        1.0      -84.0      -54.0        6.0
    215      35      35        1.0      -84.0      -54.0       21.0
    216      36      35        1.0      -84.0      -54.0       36.0
    217      37      35        1.0      -84.0      -54.0       51.0
    218      38      35        1.0      -84.0      -54.0       66.0
    219      39      35        1.0      -84.0      -54.0       81.0
    220      40      35        1.0      -84.0      -39.0      -84.0
    221      41      35        1.0      -84.0      -39.0      -69.0
    222      42      35        1.0      -84.0      -39.0      -54.0
    223      43      35        1.0      -84.0      -39.0      -39.0
    224      44      35        1.0      -84.0      -39.0      -24.0
    225      45      35        1.0      -84.0      -39.0       -9.0
    226      46      35        1.0      -84.0      -39.0        6.0
    227      47      35        1.0      -84.0      -39.0       21.0
    228      48      35        1.0      -84.0      -39.0       36.0
    229      49      35        1.0      -84.0      -39.0       51.0
    230      50      35        1.0      -84.0      -39.0       66.0
    231      51      35        1.0      -84.0      -39.0       81.0
    232      52      35        1.0      -84.0      -24.0      -84.0
    233      53      35        1.0      -84.0      -24.0      -69.0
    234      54      35        1.0      -84.0      -24.0      -54.0
    235      55      35        1.0      -84.0      -24.0      -39.0
    236      56      35        1.0      -84.0      -24.0      -24.0
    237      57      35        1.0      -84.0      -24.0       -9.0
    238      58      35        1.0      -84.0      -24.0        6.0
    239      59      35        1.0      -84.0      -24.0       21.0
    240      60      35        1.0      -84.0      -24.0       36.0
    241      61      35        1.0      -84.0      -24.0       51.0
    242      62      35        1.0      -84.0      -24.0       66.0
    243      63      35        1.0      -84.0      -24.0       81.0
    244      64      35        1.0      -84.0       -9.0      -84.0
    245      65      35        1.0      -84.0       -9.0      -69.0
    246      66      35        1.0      -84.0       -9.0      -54.0
    247      67      35        1.0      -84.0       -9.0      -39.0
    248      68      35        1.0      -84.0       -9.0      -24.0
    249      69      35        1.0      -84.0       -9.0       -9.0
    250      70      35        1.0      -84.0       -9.0        6.0
    251      71      35        1.0      -84.0       -9.0       21.0
    252      72      35        1.0      -84.0       -9.0       36.0
    253      73      35        1.0      -84.0       -9.0       51.0
    254      74      35        1.0      -84.0       -9.0       66.0
    255      75      35        1.0      -84.0       -9.0       81.0
    256      76      35        1.0      -84.0        6.0      -84.0
    257      77      35        1.0      -84.0        6.0      -69.0
    258      78      35        1.0      -84.0        6.0      -54.0
    259      79      35        1.0      -84.0        6.0      -39.0
    260      80      35        1.0      -84.0        6.0      -24.0
    261      81      35        1.0      -84.0        6.0       -9.0
    262      82      35        1.0      -84.0        6.0        6.0
    263      83      35        1.0      -84.0        6.0       21.0
    264      84      35        1.0      -84.0        6.0       36.0
    265      85      35        1.0      -84.0        6.0       51.0
    266      86      35        1.0      -84.0        6.0       66.0
    267      87      35        1.0      -84.0        6.0       81.0
    268      88      35        1.0      -84.0       21.0      -84.0
    269      89      35        1.0      -84.0       21.0      -69.0
    270      90      35        1.0      -84.0       21.0      -54.0
    271      91      35        1.0      -84.0       21.0      -39.0
    272      92      35        1.0      -84.0       21.0      -24.0
    273      93      35        1.0      -84.0       21.0       -9.0
    274      94      35        1.0      -84.0       21.0        6.0
    275      95      35        1.0      -84.0       21.0       21.0
    276      96      35        1.0      -84.0       21.0       36.0
    277      97      35        1.0      -84.0       21.0       51.0
    278      98      35        1.0      -84.0       21.0       66.0
    279      99      35        1.0      -84.0       21.0       81.0
    280     100      35        1.0      -84.0       36.0      -84.0
    281     101      35        1.0      -84.0       36.0      -69.0
    282     102      35        1.0      -84.0       36.0      -54.0
    283     103      35        1.0      -84.0       36.0      -39.0
    284     104      35        1.0      -84.0       36.0      -24.0
    285     105      35        1.0      -84.0       36.0       -9.0
    286     106      35        1.0      -84.0       36.0        6.0
    287     107      35        1.0      -84.0       36.0       21.0
    288     108      35        1.0      -84.0       36.0       36.0
    289     109      35        1.0      -84.0       36.0       51.0
    290     110      35        1.0      -84.0       36.0       66.0
    291     111      35        1.0      -84.0       36.0       81.0
    292     112      35        1.0      -84.0       51.0      -84.0
    293     113      35        1.0      -84.0       51.0      -69.0
    294     114      35        1.0      -84.0       51.0      -54.0
    295     115      35        1.0      -84.0       51.0      -39.0
    296     116      35        1.0      -84.0       51.0      -24.0
    297     117      35        1.0      -84.0       51.0       -9.0
    298     118      35        1.0      -84.0       51.0        6.0
    299     119      35        1.0      -84.0       51.0       21.0
    300     120      35        1.0      -84.0       51.0       36.0
    301     121      35        1.0      -84.0       51.0       51.0
    302     122      35        1.0      -84.0       51.0       66.0
    303     123      35        1.0      -84.0       51.0       81.0
    304     124      35        1.0      -84.0       66.0      -84.0
    305     125      35        1.0      -84.0       66.0      -69.0
    306     126      35        1.0      -84.0       66.0      -54.0
    307     127      35        1.0      -84.0       66.0      -39.0
    308     128      35        1.0      -84.0       66.0      -24.0
    309     129      35        1.0      -84.0       66.0       -9.0
    310     130      35        1.0      -84.0       66.0        6.0
    311     131      35        1.0      -84.0       66.0       21.0
    312     132      35        1.0      -84.0       66.0       36.0
    313     133      35        1.0      -84.0       66.0       51.0
    314     134      35        1.0      -84.0       66.0       66.0
    315     135      35        1.0      -84.0       66.0       81.0
    316     136      35        1.0      -84.0       81.0      -84.0
    317     137      35        1.0      -84.0       81.0      -69.0
    318     138      35        1.0      -84.0       81.0      -54.0
    319     139      35        1.0      -84.0       81.0      -39.0
    320     140      35        1.0      -84.0       81.0      -24.0
    321     141      35        1.0      -84.0       81.0       -9.0
    322     142      35        1.0      -84.0       81.0        6.0
    323     143      35        1.0      -84.0       81.0       21.0
    324     144      35        1.0      -84.0       81.0       36.0
    325     145      35        1.0      -84.0       81.0       51.0
    326     146      35        1.0      -84.0       81.0       66.0
    327     147      35        1.0      -84.0       81.0       81.0
    328     148      35        1.0      -69.0      -84.0      -84.0
    329     149      35        1.0      -69.0      -84.0      -69.0
    330     150      35        1.0      -69.0      -84.0      -54.0
    331     151      35        1.0      -69.0      -84.0      -39.0
    332     152      35        1.0      -69.0      -84.0      -24.0
    333     153      35        1.0      -69.0      -84.0       -9.0
    334     154      35        1.0      -69.0      -84.0        6.0
    335     155      35        1.0      -69.0      -84.0       21.0
    336     156      35        1.0      -69.0      -84.0       36.0
    337     157      35        1.0      -69.0      -84.0       51.0
    338     158      35        1.0      -69.0      -84.0       66.0
    339     159      35        1.0      -69.0      -84.0       81.0
    340     160      35        1.0      -69.0      -69.0      -84.0
    341     161      35        1.0      -69.0      -69.0      -69.0
    342     162      35        1.0      -69.0      -69.0      -54.0
    343     163      35        1.0      -69.0      -69.0      -39.0
    344     164      35        1.0      -69.0      -69.0      -24.0
    345     165      35        1.0      -69.0      -69.0       -9.0
    346     166      35        1.0      -69.0      -69.0        6.0
    347     167      35        1.0      -69.0      -69.0       21.0
    348     168      35        1.0      -69.0      -69.0       36.0
    349     169      35        1.0      -69.0      -69.0       51.0
    350     170      35        1.0      -69.0      -69.0       66.0
    351     171      35        1.0      -69.0      -69.0       81.0
    352     172      35        1.0      -69.0      -54.0      -84.0
    353     173      35        1.0      -69.0      -54.0      -69.0
    354     174      35        1.0      -69.0      -54.0      -54.0
    355     175      35        1.0      -69.0      -54.0      -39.0
    356     176      35        1.0      -69.0      -54.0      -24.0
    357     177      35        1.0      -69.0      -54.0       -9.0
    358     178      35        1.0      -69.0      -54.0        6.0
    359     179      35        1.0      -69.0      -54.0       21.0
    360     180      35        1.0      -69.0      -54.0       36.0
    361     181      35        1.0      -69.0      -54.0       51.0
    362     182      35        1.0      -69.0      -54.0       66.0
    363     183      35        1.0      -69.0      -54.0       81.0
    364     184      35        1.0      -69.0      -39.0      -84.0
    365     185      35        1.0      -69.0      -39.0      -69.0
    366     186      35        1.0      -69.0      -39.0      -54.0
    367     187      35        1.0      -69.0      -39.0      -39.0
    368     188      35        1.0      -69.0      -39.0      -24.0
    369     189      35        1.0      -69.0      -39.0       -9.0
    370     190      35        1.0      -69.0      -39.0        6.0
    371     191      35        1.0      -69.0      -39.0       21.0
    372     192      35        1.0      -69.0      -39.0       36.0
    373     193      35        1.0      -69.0      -39.0       51.0
    374     194      35        1.0      -69.0      -39.0       66.0
    375     195      35        1.0      -69.0      -39.0       81.0
    376     196      35        1.0      -69.0      -24.0      -84.0
    377     197      35        1.0      -69.0      -24.0      -69.0
    378     198      35        1.0      -69.0      -24.0      -54.0
    379     199      35        1.0      -69.0      -24.0      -39.0
    380     200      35        1.0      -69.0      -24.0      -24.0
    381     201      35        1.0      -69.0      -24.0       -9.0
    382     202      35        1.0      -69.0      -24.0        6.0
    383     203      35        1.0      -69.0      -24.0       21.0
    384     204      35        1.0      -69.0      -24.0       36.0
    385     205      35        1.0      -69.0      -24.0       51.0
    386     206      35        1.0      -69.0      -24.0       66.0
    387     207      35        1.0      -69.0      -24.0       81.0
    388     208      35        1.0      -69.0       -9.0      -84.0
    389     209      35        1.0      -69.0       -9.0      -69.0
    390     210      35        1.0      -69.0       -9.0      -54.0
    391     211      35        1.0      -69.0       -9.0      -39.0
    392     212      35        1.0      -69.0       -9.0      -24.0
    393     213      35        1.0      -69.0       -9.0       -9.0
    394     214      35        1.0      -69.0       -9.0        6.0
    395     215      35        1.0      -69.0       -9.0       21.0
    396     216      35        1.0      -69.0       -9.0       36.0
    397     217      35        1.0      -69.0       -9.0       51.0
    398     218      35        1.0      -69.0       -9.0       66.0
    399     219      35        1.0      -69.0       -9.0       81.0
    400     220      35        1.0      -69.0        6.0      -84.0
    401     221      35        1.0      -69.0        6.0      -69.0
    402     222      35        1.0      -69.0        6.0      -54.0
    403     223      35        1.0      -69.0        6.0      -39.0
    404     224      35        1.0      -69.0        6.0      -24.0
    405     225      35        1.0      -69.0        6.0       -9.0
    406     226      35        1.0      -69.0        6.0        6.0
    407     227      35        1.0      -69.0        6.0       21.0
    408     228      35        1.0      -69.0        6.0       36.0
    409     229      35        1.0      -69.0        6.0       51.0
    410     230      35        1.0      -69.0        6.0       66.0
    411     231      35        1.0      -69.0        6.0       81.0
    412     232      35        1.0      -69.0       21.0      -84.0
    413     233      35        1.0      -69.0       21.0      -69.0
    414     234      35        1.0      -69.0       21.0      -54.0
    415     235      35        1.0      -69.0       21.0      -39.0
    416     236      35        1.0      -69.0       21.0      -24.0
    417     237      35        1.0      -69.0       21.0       -9.0
    418     238      35        1.0      -69.0       21.0        6.0
    419     239      35        1.0      -69.0       21.0       21.0
    420     240      35        1.0      -69.0       21.0       36.0
    421     241      35        1.0      -69.0       21.0       51.0
    422     242      35        1.0      -69.0       21.0       66.0
    423     243      35        1.0      -69.0       21.0       81.0
    424     244      35        1.0      -69.0       36.0      -84.0
    425     245      35        1.0      -69.0       36.0      -69.0
    426     246      35        1.0      -69.0       36.0      -54.0
    427     247      35        1.0      -69.0       36.0      -39.0
    428     248      35        1.0      -69.0       36.0      -24.0
    429     249      35        1.0      -69.0       36.0       -9.0