protein dna data file produced on: Mon Dec  2 18:18:03 2019

215 atoms
180 bonds
255 angles
212 dihedrals

38 atom types
2 bond types
18 angle types
2 dihedral types

-100.0 100.0 xlo xhi
-100.0 100.0 ylo yhi
-100.0 100.0 zlo zhi

Masses

   1   94.9696
   2   83.1104
   3  134.1220
   4  125.1078
   5  150.1214
   6  110.0964
   7  134.1220
   8  125.1078
   9  150.1214
  10  110.0964
  11  134.1220
  12  125.1078
  13  150.1214
  14  110.0964
  15   71.0788
  16  156.1875
  17  114.1038
  18  115.0886
  19  103.1388
  20  129.1155
  21  128.1307
  22   57.0519
  23  137.1411
  24  113.1594
  25  113.1594
  26  128.1741
  27  131.1926
  28  147.1766
  29   97.1167
  30   87.0782
  31  101.1051
  32  186.2132
  33  163.1760
  34   99.1326
  35   22.9898
  36   24.3050
  37   35.4530
  38   49.4000

Atoms

      1       1       1      33    0.0000 -1.680000000e+00 3.490000000e+00 4.332000000e+01
      2       1       2      16    1.0000 -2.840000000e+00 5.610000000e+00 4.027000000e+01
      3       1       3      22    0.0000 -1.160000000e+00 8.160000000e+00 3.791000000e+01
      4       1       4      23    0.0000 -1.960000000e+00 1.163000000e+01 3.636000000e+01
      5       1       5      16    1.0000 1.000000000e-01 1.455000000e+01 3.660000000e+01
      6       1       6      28    0.0000 -2.000000000e-01 1.772000000e+01 3.860000000e+01
      7       1       7      31    0.0000 -5.600000000e-01 2.102000000e+01 3.679000000e+01
      8       1       8      26    1.0000 2.820000000e+00 2.270000000e+01 3.586000000e+01
      9       1       9      20   -1.0000 2.400000000e+00 2.562000000e+01 3.832000000e+01
     10       1      10      17    0.0000 2.050000000e+00 2.297000000e+01 4.106000000e+01
     11       1      11      34    0.0000 5.040000000e+00 2.077000000e+01 4.024000000e+01
     12       1      12      16    1.0000 6.850000000e+00 2.411000000e+01 4.000000000e+01
     13       1      13      24    0.0000 5.980000000e+00 2.528000000e+01 4.350000000e+01
     14       1      14      25    0.0000 6.450000000e+00 2.185000000e+01 4.506000000e+01
     15       1      15      20   -1.0000 9.890000000e+00 2.169000000e+01 4.340000000e+01
     16       1      16      30    0.0000 1.068000000e+01 2.515000000e+01 4.461000000e+01
     17       1      17      32    0.0000 9.940000000e+00 2.414000000e+01 4.813000000e+01
     18       1      18      28    0.0000 1.207000000e+01 2.099000000e+01 4.806000000e+01
     19       1      19      15    0.0000 1.506000000e+01 2.294000000e+01 4.659000000e+01
     20       1      20      26    1.0000 1.482000000e+01 2.594000000e+01 4.902000000e+01
     21       1      21      17    0.0000 1.464000000e+01 2.312000000e+01 5.162000000e+01
     22       1      22      24    0.0000 1.725000000e+01 2.035000000e+01 5.068000000e+01
     23       1      23      20   -1.0000 1.905000000e+01 2.031000000e+01 5.410000000e+01
     24       1      24      17    0.0000 1.605000000e+01 1.887000000e+01 5.588000000e+01
     25       1      25      29    0.0000 1.306000000e+01 1.864000000e+01 5.336000000e+01
     26       1      26      33    0.0000 1.043000000e+01 1.746000000e+01 5.577000000e+01
     27       1      27      25    0.0000 7.170000000e+00 1.941000000e+01 5.577000000e+01
     28       1      28      18   -1.0000 6.310000000e+00 2.129000000e+01 5.902000000e+01
     29       1      29      31    0.0000 3.080000000e+00 2.285000000e+01 6.023000000e+01
     30       1      30      26    1.0000 3.510000000e+00 2.633000000e+01 5.877000000e+01
     31       1      31      22    0.0000 5.260000000e+00 2.480000000e+01 5.581000000e+01
     32       1      32      25    0.0000 2.340000000e+00 2.255000000e+01 5.480000000e+01
     33       1      33      20   -1.0000 -1.200000000e-01 2.534000000e+01 5.520000000e+01
     34       1      34      17    0.0000 1.650000000e+00 2.757000000e+01 5.270000000e+01
     35       1      35      25    0.0000 1.930000000e+00 2.495000000e+01 5.002000000e+01
     36       1      36      27    0.0000 -1.730000000e+00 2.410000000e+01 5.077000000e+01
     37       1      37      26    1.0000 -2.430000000e+00 2.781000000e+01 5.041000000e+01
     38       1      38      17    0.0000 -5.400000000e-01 2.768000000e+01 4.707000000e+01
     39       1      39      31    0.0000 -1.820000000e+00 2.455000000e+01 4.535000000e+01
     40       1      40      30    0.0000 -5.010000000e+00 2.287000000e+01 4.437000000e+01
     41       1      41      25    0.0000 -3.650000000e+00 1.962000000e+01 4.607000000e+01
     42       1      42      30    0.0000 -5.340000000e+00 1.773000000e+01 4.890000000e+01
     43       1      43      16    1.0000 -2.890000000e+00 1.778000000e+01 5.195000000e+01
     44       1      44      24    0.0000 -2.380000000e+00 1.392000000e+01 5.156000000e+01
     45       1      45      21    0.0000 -1.110000000e+00 1.458000000e+01 4.805000000e+01
     46       1      46      24    0.0000 1.490000000e+00 1.711000000e+01 4.925000000e+01
     47       1      47      26    1.0000 2.560000000e+00 1.476000000e+01 5.200000000e+01
     48       1      48      17    0.0000 2.920000000e+00 1.206000000e+01 4.944000000e+01
     49       1      49      32    0.0000 4.790000000e+00 1.420000000e+01 4.688000000e+01
     50       1      50      34    0.0000 7.460000000e+00 1.543000000e+01 4.930000000e+01
     51       1      51      30    0.0000 8.050000000e+00 1.178000000e+01 5.050000000e+01
     52       1      52      17    0.0000 8.230000000e+00 1.040000000e+01 4.693000000e+01
     53       1      53      16    1.0000 1.047000000e+01 1.338000000e+01 4.600000000e+01
     54       1      54      16    1.0000 1.292000000e+01 1.236000000e+01 4.873000000e+01
     55       1      55      16    1.0000 1.307000000e+01 8.780000000e+00 4.738000000e+01
     56       1      56      26    1.0000 1.403000000e+01 1.038000000e+01 4.401000000e+01
     57       1      57      20   -1.0000 1.675000000e+01 1.258000000e+01 4.545000000e+01
     58       1      58      26    1.0000 1.799000000e+01 9.280000000e+00 4.703000000e+01
     59       1      59      31    0.0000 1.912000000e+01 8.400000000e+00 4.349000000e+01
     60       2      60       2    0.0000 4.721025000e+01 6.611468000e+00 -7.686480000e-01
     61       2      60       7    0.0000 4.955984200e+01 2.425299000e+00 1.221300000e-02
     62       2      61       1   -1.0000 4.526689100e+01 7.366864000e+00 1.413629000e+00
     63       2      61       2    0.0000 4.461160800e+01 3.868585000e+00 2.439399000e+00
     64       2      61       6    0.0000 4.848608900e+01 2.206975000e+00 3.284253000e+00
     65       2      62       1   -1.0000 4.163026100e+01 3.086495000e+00 5.559634000e+00
     66       2      62       2    0.0000 4.307005700e+01 -2.280380000e-01 6.574417000e+00
     67       2      62       3    0.0000 4.789069500e+01 3.140070000e-01 6.923878000e+00
     68       2      63       1   -1.0000 4.182198500e+01 -1.817133000e+00 9.166918000e+00
     69       2      63       2    0.0000 4.489928600e+01 -3.805392000e+00 9.860574000e+00
     70       2      63       4    0.0000 4.776632000e+01 -5.358250000e-01 1.037456400e+01
     71       2      64       1   -1.0000 4.444535300e+01 -6.305540000e+00 1.344228700e+01
     72       2      64       2    0.0000 4.806561800e+01 -6.222168000e+00 1.427701500e+01
     73       2      64       5    0.0000 4.992272200e+01 -1.619212000e+00 1.396156200e+01
     74       2      65       1   -1.0000 4.945822600e+01 -7.895408000e+00 1.673725700e+01
     75       2      65       2    0.0000 5.259302500e+01 -5.840299000e+00 1.702837500e+01
     76       2      65       4    0.0000 5.075212000e+01 -1.878269000e+00 1.731904700e+01
     77       2      66       1   -1.0000 5.518504500e+01 -6.751134000e+00 2.019369000e+01
     78       2      66       2    0.0000 5.654652700e+01 -3.268932000e+00 2.050379900e+01
     79       2      66       3    0.0000 5.281278000e+01 -1.523370000e-01 2.048506400e+01
     80       2      67       1   -1.0000 5.920646000e+01 -2.396244000e+00 2.290134400e+01
     81       2      67       2    0.0000 5.832610200e+01 1.240992000e+00 2.303383800e+01
     82       2      67       3    0.0000 5.350256700e+01 1.673142000e+00 2.348199900e+01
     83       2      68       1   -1.0000 5.993366500e+01 3.109358000e+00 2.520883400e+01
     84       2      68       2    0.0000 5.728641500e+01 5.726345000e+00 2.543102800e+01
     85       2      68       4    0.0000 5.390613800e+01 3.226333000e+00 2.665505900e+01
     86       2      69       1   -1.0000 5.784674300e+01 8.799192000e+00 2.771647000e+01
     87       2      69       2    0.0000 5.419140100e+01 9.529791000e+00 2.820149100e+01
     88       2      69       4    0.0000 5.294738700e+01 5.587688000e+00 2.964565600e+01
     89       2      70       1   -1.0000 5.351994700e+01 1.235570000e+01 3.050539800e+01
     90       2      70       2    0.0000 5.023490000e+01 1.098312800e+01 3.155059600e+01
     91       2      70       6    0.0000 5.114227400e+01 6.964396000e+00 3.278041900e+01
     92       2      71       1   -1.0000 4.765156600e+01 1.315289500e+01 3.435272000e+01
     93       2      71       2    0.0000 4.577885800e+01 1.011077500e+01 3.550471600e+01
     94       2      71       3    0.0000 4.904713000e+01 6.607140000e+00 3.633972100e+01
     95       2      72       1   -1.0000 4.360502300e+01 1.037141500e+01 3.795673900e+01
     96       2      72       2    0.0000 4.378700800e+01 6.783654000e+00 3.895534900e+01
     97       2      72       4    0.0000 4.808047300e+01 6.478698000e+00 3.975930100e+01
     98       2      73       1   -1.0000 4.157335400e+01 5.512329000e+00 4.186485400e+01
     99       2      73       2    0.0000 4.379468700e+01 2.607026000e+00 4.273436200e+01
    100       2      73       4    0.0000 4.753630700e+01 4.816013000e+00 4.327762300e+01
    101       2      74       1   -1.0000 4.294375800e+01 2.538170000e-01 4.568747400e+01
    102       2      74       2    0.0000 4.648816400e+01 -8.565340000e-01 4.626631600e+01
    103       2      74       4    0.0000 4.831949900e+01 3.094817000e+00 4.672168200e+01
    104       2      75       1   -1.0000 4.730420000e+01 -3.487201000e+00 4.942572300e+01
    105       2      75       2    0.0000 5.082609600e+01 -2.297353000e+00 4.993063900e+01
    106       2      75       3    0.0000 5.080940600e+01 2.565941000e+00 5.000364800e+01
    107       2      76       1   -1.0000 5.226236400e+01 -3.565980000e+00 5.226241700e+01
    108       2      76       2    0.0000 5.455985500e+01 -7.066650000e-01 5.277631300e+01
    109       2      76       6    0.0000 5.199856000e+01 2.715924000e+00 5.323919200e+01
    110       2      77       1   -1.0000 5.768481200e+01 -1.007875000e+00 5.583867300e+01
    111       2      77       2    0.0000 5.805734500e+01 2.698410000e+00 5.630194900e+01
    112       2      77       3    0.0000 5.358798300e+01 4.597502000e+00 5.657343100e+01
    113       2      78       1   -1.0000 5.989484400e+01 3.528975000e+00 5.854767900e+01
    114       2      78       2    0.0000 5.819521300e+01 6.768743000e+00 5.912720100e+01
    115       2      78       6    0.0000 5.406723100e+01 5.763257000e+00 5.978573900e+01
    116       2      79       1   -1.0000 6.023635500e+01 9.354944000e+00 6.244538400e+01
    117       2      79       2    0.0000 5.711896100e+01 1.119914400e+01 6.312852700e+01
    118       2      79       5    0.0000 5.325505600e+01 8.076739000e+00 6.336315600e+01
    119       2      80       1   -1.0000 5.709983400e+01 1.382456500e+01 6.505480300e+01
    120       2      80       2    0.0000 5.346595100e+01 1.354252500e+01 6.569308800e+01
    121       2      80      14    0.0000 5.294081600e+01 9.355106000e+00 6.651688200e+01
    122       3      81       2    0.0000 4.437487100e+01 3.597504000e+00 6.637536700e+01
    123       3      81       9    0.0000 4.893248600e+01 5.580073000e+00 6.619453800e+01
    124       3      82       1   -1.0000 4.213672400e+01 4.682528000e+00 6.427376300e+01
    125       3      82       2    0.0000 4.408631500e+01 7.731538000e+00 6.350485100e+01
    126       3      82       6    0.0000 4.807558600e+01 6.226317000e+00 6.294987000e+01
    127       3      83       1   -1.0000 4.232834000e+01 1.024530200e+01 5.997576300e+01
    128       3      83       2    0.0000 4.562668100e+01 1.167172200e+01 5.915746600e+01
    129       3      83       5    0.0000 4.912148000e+01 8.133612000e+00 5.919813400e+01
    130       3      84       1   -1.0000 4.621219600e+01 1.388891100e+01 5.680512300e+01
    131       3      84       2    0.0000 4.989012300e+01 1.322409600e+01 5.639594900e+01
    132       3      84       4    0.0000 4.971383600e+01 8.881517000e+00 5.586366600e+01
    133       3      85       1   -1.0000 5.153144200e+01 1.534233100e+01 5.291680000e+01
    134       3      85       2    0.0000 5.412604400e+01 1.276749700e+01 5.224604000e+01
    135       3      85       5    0.0000 5.224619300e+01 8.166679000e+00 5.243355400e+01
    136       3      86       1   -1.0000 5.644575700e+01 1.300662600e+01 4.993266100e+01
    137       3      86       2    0.0000 5.728970500e+01 9.350558000e+00 4.969115900e+01
    138       3      86       4    0.0000 5.323987500e+01 7.780967000e+00 4.913332000e+01
    139       3      87       1   -1.0000 5.998720700e+01 8.208402000e+00 4.669397300e+01
    140       3      87       2    0.0000 5.857015000e+01 4.758886000e+00 4.628568400e+01
    141       3      87       3    0.0000 5.372852000e+01 5.112253000e+00 4.598866100e+01
    142       3      88       1   -1.0000 6.002929600e+01 2.286424000e+00 4.396847700e+01
    143       3      88       2    0.0000 5.688381000e+01 2.835300000e-01 4.362222200e+01
    144       3      88       3    0.0000 5.315229500e+01 3.328208000e+00 4.294231000e+01
    145       3      89       1   -1.0000 5.678254900e+01 -2.704672000e+00 4.146028700e+01
    146       3      89       2    0.0000 5.308321100e+01 -2.560742000e+00 4.089655000e+01
    147       3      89       3    0.0000 5.182698600e+01 2.027694000e+00 3.988505000e+01
    148       3      90       1   -1.0000 5.179414800e+01 -4.688712000e+00 3.874772100e+01
    149       3      90       2    0.0000 4.877785800e+01 -2.629019000e+00 3.799682500e+01
    150       3      90       4    0.0000 5.073653600e+01 1.046862000e+00 3.664573700e+01
    151       3      91       1   -1.0000 4.626024400e+01 -4.495463000e+00 3.492088800e+01
    152       3      91       2    0.0000 4.495889900e+01 -1.254971000e+00 3.364980300e+01
    153       3      91       5    0.0000 4.860000100e+01 2.076032000e+00 3.303109900e+01
    154       3      92       1   -1.0000 4.213736300e+01 -9.495270000e-01 3.122085100e+01
    155       3      92       2    0.0000 4.303037400e+01 2.511425000e+00 3.012001000e+01
    156       3      92       3    0.0000 4.786731000e+01 2.749266000e+00 2.966943000e+01
    157       3      93       1   -1.0000 4.119461800e+01 4.152330000e+00 2.737226100e+01
    158       3      93       2    0.0000 4.401764800e+01 6.419888000e+00 2.641684100e+01
    159       3      93       3    0.0000 4.813104000e+01 3.828543000e+00 2.626924400e+01
    160       3      94       1   -1.0000 4.363300600e+01 8.266720000e+00 2.372450100e+01
    161       3      94       2    0.0000 4.728101900e+01 8.691382000e+00 2.307957600e+01
    162       3      94       4    0.0000 4.845352900e+01 4.482448000e+00 2.278894500e+01
    163       3      95       1   -1.0000 4.843627600e+01 1.083335000e+01 2.007553700e+01
    164       3      95       2    0.0000 5.177759300e+01 9.147248000e+00 1.972846800e+01
    165       3      95       4    0.0000 5.036675000e+01 5.014944000e+00 1.939863100e+01
    166       3      96       1   -1.0000 5.433637100e+01 1.032686200e+01 1.662548900e+01
    167       3      96       2    0.0000 5.606004700e+01 7.006048000e+00 1.635299300e+01
    168       3      96       3    0.0000 5.267191700e+01 3.517355000e+00 1.628530600e+01
    169       3      97       1   -1.0000 5.807950200e+01 6.814569000e+00 1.411790200e+01
    170       3      97       2    0.0000 5.776483400e+01 3.141521000e+00 1.375874400e+01
    171       3      97       6    0.0000 5.356979500e+01 2.435017000e+00 1.313418700e+01
    172       3      98       1   -1.0000 6.035709300e+01 1.049942000e+00 1.090580000e+01
    173       3      98       2    0.0000 5.807051700e+01 -1.894950000e+00 1.047316600e+01
    174       3      98       3    0.0000 5.355614800e+01 -1.743700000e-01 9.912971000e+00
    175       3      99       1   -1.0000 5.879184500e+01 -4.199275000e+00 8.242090000e+00
    176       3      99       2    0.0000 5.528310700e+01 -5.397925000e+00 7.845024000e+00
    177       3      99       4    0.0000 5.336741900e+01 -1.637466000e+00 6.677687000e+00
    178       3     100       1   -1.0000 5.497446700e+01 -8.534758000e+00 4.787556000e+00
    179       3     100       2    0.0000 5.148481800e+01 -7.653105000e+00 3.862958000e+00
    180       3     100       5    0.0000 5.091486200e+01 -2.745134000e+00 3.294292000e+00
    181       3     101       1   -1.0000 4.964096000e+01 -9.317209000e+00 1.713019000e+00
    182       3     101       2    0.0000 4.715188200e+01 -6.596525000e+00 9.779680000e-01
    183       3     101      12    0.0000 4.996434500e+01 -3.380030000e+00 1.981600000e-02
184 4 102 35 1.0 -84.0 -84.0 -84.0
185 5 103 35 1.0 -84.0 -84.0 -69.0
186 6 104 35 1.0 -84.0 -84.0 -54.0
187 7 105 35 1.0 -84.0 -84.0 -39.0
188 8 106 35 1.0 -84.0 -84.0 -24.0
189 9 107 35 1.0 -84.0 -84.0 -9.0
190 10 108 35 1.0 -84.0 -84.0 6.0
191 11 109 35 1.0 -84.0 -84.0 21.0
192 12 110 35 1.0 -84.0 -84.0 36.0
193 13 111 35 1.0 -84.0 -84.0 51.0
194 14 112 35 1.0 -84.0 -84.0 66.0
195 15 113 35 1.0 -84.0 -84.0 81.0
196 16 114 35 1.0 -84.0 -69.0 -84.0
197 17 115 35 1.0 -84.0 -69.0 -69.0
198 18 116 35 1.0 -84.0 -69.0 -54.0
199 19 117 35 1.0 -84.0 -69.0 -39.0
200 20 118 35 1.0 -84.0 -69.0 -24.0
201 21 119 35 1.0 -84.0 -69.0 -9.0
202 22 120 35 1.0 -84.0 -69.0 6.0
203 23 121 35 1.0 -84.0 -69.0 21.0
204 24 122 35 1.0 -84.0 -69.0 36.0
205 25 123 35 1.0 -84.0 -69.0 51.0
206 26 124 35 1.0 -84.0 -69.0 66.0
207 27 125 35 1.0 -84.0 -69.0 81.0
208 28 126 35 1.0 -84.0 -54.0 -84.0
209 29 127 35 1.0 -84.0 -54.0 -69.0
210 30 128 35 1.0 -84.0 -54.0 -54.0
211 31 129 35 1.0 -84.0 -54.0 -39.0
212 32 130 35 1.0 -84.0 -54.0 -24.0
213 33 131 35 1.0 -84.0 -54.0 -9.0
214 34 132 35 1.0 -84.0 -54.0 6.0
215 35 133 35 1.0 -84.0 -54.0 21.0
Bonds

      1       1      60      61
      2       1      60      62
      3       1      62      63
      4       1      63      64
      5       1      63      65
      6       1      65      66
      7       1      66      67
      8       1      66      68
      9       1      68      69
     10       1      69      70
     11       1      69      71
     12       1      71      72
     13       1      72      73
     14       1      72      74
     15       1      74      75
     16       1      75      76
     17       1      75      77
     18       1      77      78
     19       1      78      79
     20       1      78      80
     21       1      80      81
     22       1      81      82
     23       1      81      83
     24       1      83      84
     25       1      84      85
     26       1      84      86
     27       1      86      87
     28       1      87      88
     29       1      87      89
     30       1      89      90
     31       1      90      91
     32       1      90      92
     33       1      92      93
     34       1      93      94
     35       1      93      95
     36       1      95      96
     37       1      96      97
     38       1      96      98
     39       1      98      99
     40       1      99     100
     41       1      99     101
     42       1     101     102
     43       1     102     103
     44       1     102     104
     45       1     104     105
     46       1     105     106
     47       1     105     107
     48       1     107     108
     49       1     108     109
     50       1     108     110
     51       1     110     111
     52       1     111     112
     53       1     111     113
     54       1     113     114
     55       1     114     115
     56       1     114     116
     57       1     116     117
     58       1     117     118
     59       1     117     119
     60       1     119     120
     61       1     120     121
     62       1     122     123
     63       1     122     124
     64       1     124     125
     65       1     125     126
     66       1     125     127
     67       1     127     128
     68       1     128     129
     69       1     128     130
     70       1     130     131
     71       1     131     132
     72       1     131     133
     73       1     133     134
     74       1     134     135
     75       1     134     136
     76       1     136     137
     77       1     137     138
     78       1     137     139
     79       1     139     140
     80       1     140     141
     81       1     140     142
     82       1     142     143
     83       1     143     144
     84       1     143     145
     85       1     145     146
     86       1     146     147
     87       1     146     148
     88       1     148     149
     89       1     149     150
     90       1     149     151
     91       1     151     152
     92       1     152     153
     93       1     152     154
     94       1     154     155
     95       1     155     156
     96       1     155     157
     97       1     157     158
     98       1     158     159
     99       1     158     160
    100       1     160     161
    101       1     161     162
    102       1     161     163
    103       1     163     164
    104       1     164     165
    105       1     164     166
    106       1     166     167
    107       1     167     168
    108       1     167     169
    109       1     169     170
    110       1     170     171
    111       1     170     172
    112       1     172     173
    113       1     173     174
    114       1     173     175
    115       1     175     176
    116       1     176     177
    117       1     176     178
    118       1     178     179
    119       1     179     180
    120       1     179     181
    121       1     181     182
    122       1     182     183
    123       2       1       2
    124       2       2       3
    125       2       3       4
    126       2       4       5
    127       2       5       6
    128       2       6       7
    129       2       7       8
    130       2       8       9
    131       2       9      10
    132       2      10      11
    133       2      11      12
    134       2      12      13
    135       2      13      14
    136       2      14      15
    137       2      15      16
    138       2      16      17
    139       2      17      18
    140       2      18      19
    141       2      19      20
    142       2      20      21
    143       2      21      22
    144       2      22      23
    145       2      23      24
    146       2      24      25
    147       2      25      26
    148       2      26      27
    149       2      27      28
    150       2      28      29
    151       2      29      30
    152       2      30      31
    153       2      31      32
    154       2      32      33
    155       2      33      34
    156       2      34      35
    157       2      35      36
    158       2      36      37
    159       2      37      38
    160       2      38      39
    161       2      39      40
    162       2      40      41
    163       2      41      42
    164       2      42      43
    165       2      43      44
    166       2      44      45
    167       2      45      46
    168       2      46      47
    169       2      47      48
    170       2      48      49
    171       2      49      50
    172       2      50      51
    173       2      51      52
    174       2      52      53
    175       2      53      54
    176       2      54      55
    177       2      55      56
    178       2      56      57
    179       2      57      58
    180       2      58      59

Angles

      1       1      61      60      62
      2       1      60      62      63
      3       1      62      63      64
      4       1      62      63      65
      5       1      64      63      65
      6       1      63      65      66
      7       1      65      66      67
      8       1      65      66      68
      9       1      67      66      68
     10       1      66      68      69
     11       1      68      69      70
     12       1      68      69      71
     13       1      70      69      71
     14       1      69      71      72
     15       1      71      72      73
     16       1      71      72      74
     17       1      73      72      74
     18       1      72      74      75
     19       1      74      75      76
     20       1      74      75      77
     21       1      76      75      77
     22       1      75      77      78
     23       1      77      78      79
     24       1      77      78      80
     25       1      79      78      80
     26       1      78      80      81
     27       1      80      81      82
     28       1      80      81      83
     29       1      82      81      83
     30       1      81      83      84
     31       1      83      84      85
     32       1      83      84      86
     33       1      85      84      86
     34       1      84      86      87
     35       1      86      87      88
     36       1      86      87      89
     37       1      88      87      89
     38       1      87      89      90
     39       1      89      90      91
     40       1      89      90      92
     41       1      91      90      92
     42       1      90      92      93
     43       1      92      93      94
     44       1      92      93      95
     45       1      94      93      95
     46       1      93      95      96
     47       1      95      96      97
     48       1      95      96      98
     49       1      97      96      98
     50       1      96      98      99
     51       1      98      99     100
     52       1      98      99     101
     53       1     100      99     101
     54       1      99     101     102
     55       1     101     102     103
     56       1     101     102     104
     57       1     103     102     104
     58       1     102     104     105
     59       1     104     105     106
     60       1     104     105     107
     61       1     106     105     107
     62       1     105     107     108
     63       1     107     108     109
     64       1     107     108     110
     65       1     109     108     110
     66       1     108     110     111
     67       1     110     111     112
     68       1     110     111     113
     69       1     112     111     113
     70       1     111     113     114
     71       1     113     114     115
     72       1     113     114     116
     73       1     115     114     116
     74       1     114     116     117
     75       1     116     117     118
     76       1     116     117     119
     77       1     118     117     119
     78       1     117     119     120
     79       1     119     120     121
     80       1     123     122     124
     81       1     122     124     125
     82       1     124     125     126
     83       1     124     125     127
     84       1     126     125     127
     85       1     125     127     128
     86       1     127     128     129
     87       1     127     128     130
     88       1     129     128     130
     89       1     128     130     131
     90       1     130     131     132
     91       1     130     131     133
     92       1     132     131     133
     93       1     131     133     134
     94       1     133     134     135
     95       1     133     134     136
     96       1     135     134     136
     97       1     134     136     137
     98       1     136     137     138
     99       1     136     137     139
    100       1     138     137     139
    101       1     137     139     140
    102       1     139     140     141
    103       1     139     140     142
    104       1     141     140     142
    105       1     140     142     143
    106       1     142     143     144
    107       1     142     143     145
    108       1     144     143     145
    109       1     143     145     146
    110       1     145     146     147
    111       1     145     146     148
    112       1     147     146     148
    113       1     146     148     149
    114       1     148     149     150
    115       1     148     149     151
    116       1     150     149     151
    117       1     149     151     152
    118       1     151     152     153
    119       1     151     152     154
    120       1     153     152     154
    121       1     152     154     155
    122       1     154     155     156
    123       1     154     155     157
    124       1     156     155     157
    125       1     155     157     158
    126       1     157     158     159
    127       1     157     158     160
    128       1     159     158     160
    129       1     158     160     161
    130       1     160     161     162
    131       1     160     161     163
    132       1     162     161     163
    133       1     161     163     164
    134       1     163     164     165
    135       1     163     164     166
    136       1     165     164     166
    137       1     164     166     167
    138       1     166     167     168
    139       1     166     167     169
    140       1     168     167     169
    141       1     167     169     170
    142       1     169     170     171
    143       1     169     170     172