LAMMPS (5 Nov 2016)
Running on 1 partitions of processors
