LAMMPS data file

40 atoms
44 atom types
36 bonds
2 bond types

0 100.0 xlo xhi
0 100.0 ylo yhi
0 100.0 zlo zhi

Masses

1 131.2
2 57.05
3 128.2
4 101.1
5 156.2
6 71.08
7 115.1
8 129.1
9 163.2
10 99.06999999999999
11 113.2
12 128.1
13 186.2
14 147.2
15 87.08
16 137.1
17 114.1
18 97.12
19 103.1
20 113.2
21 131.2
22 57.05
23 128.2
24 101.1
25 156.2
26 71.08
27 115.1
28 129.1
29 163.2
30 99.06999999999999
31 113.2
32 128.1
33 186.2
34 147.2
35 87.08
36 137.1
37 114.1
38 97.12
39 103.1
40 113.2
41 329.2
42 305.2
43 345.2
44 306.2

Atoms

1 1 5 0.75 0.0 0.0 -17.100000381469727
2 1 5 0.75 0.0 0.0 -13.300000190734863
3 1 5 0.75 0.0 0.0 -9.5
4 1 5 0.75 0.0 0.0 -5.699999809265137
5 1 5 0.75 0.0 0.0 -1.899999976158142
6 1 5 0.75 0.0 0.0 1.899999976158142
7 1 5 0.75 0.0 0.0 5.699999809265137
8 1 5 0.75 0.0 0.0 9.5
9 1 5 0.75 0.0 0.0 13.300000190734863
10 1 5 0.75 0.0 0.0 17.100000381469727
11 2 3 0.75 48.474002838134766 66.677001953125 15.095000267028809
12 2 3 0.75 46.5780029296875 69.77799987792969 13.98699951171875
13 2 3 0.75 44.682003021240234 72.87899780273438 12.878999710083008
14 2 3 0.75 42.78499984741211 75.9800033569336 11.770999908447266
15 2 3 0.75 40.888999938964844 79.08100128173828 10.663000106811523
16 2 3 0.75 38.99300003051758 82.18299865722656 9.555999755859375
17 2 3 0.75 37.09700012207031 85.28400421142578 8.447999954223633
18 2 3 0.75 35.20100021362305 88.38500213623047 7.340000152587891
19 2 3 0.75 33.30500030517578 91.48599243164062 6.23199987411499
20 2 3 0.75 31.408000946044922 94.58700561523438 5.12399959564209
21 3 44 -0.75 77.46699523925781 31.888999938964844 77.08100128173828
22 3 44 -0.75 72.90399932861328 31.347000122070312 79.05099487304688
23 3 44 -0.75 68.34099578857422 30.805999755859375 81.0219955444336
24 3 44 -0.75 63.77799987792969 30.263999938964844 82.99200439453125
25 3 44 -0.75 59.2140007019043 29.722000122070312 84.96299743652344
26 3 44 -0.75 54.650997161865234 29.18000030517578 86.93299865722656
27 3 44 -0.75 50.0880012512207 28.63800048828125 88.90399932861328
28 3 44 -0.75 45.52499771118164 28.09600067138672 90.87400817871094
29 3 44 -0.75 40.96099853515625 27.55500030517578 92.84500122070312
30 3 44 -0.75 36.39800262451172 27.012998580932617 94.81499481201172
31 4 44 -0.75 50.63800048828125 59.090999603271484 57.23899841308594
32 4 44 -0.75 48.11600112915039 55.47500228881836 54.88100051879883
33 4 44 -0.75 45.59299850463867 51.858001708984375 52.52399826049805
34 4 44 -0.75 43.07099914550781 48.242000579833984 50.16600036621094
35 4 44 -0.75 40.54900360107422 44.625 47.80799865722656
36 4 44 -0.75 38.0260009765625 41.007999420166016 45.45100402832031
37 4 44 -0.75 35.50400161743164 37.39200210571289 43.09299850463867
38 4 44 -0.75 32.98099899291992 33.775001525878906 40.736000061035156
39 4 44 -0.75 30.459001541137695 30.158998489379883 38.37799835205078
40 4 44 -0.75 27.937000274658203 26.54199981689453 36.02000045776367

Bonds

1 1 1 2
2 1 2 3
3 1 3 4
4 1 4 5
5 1 5 6
6 1 6 7
7 1 7 8
8 1 8 9
9 1 9 10
10 1 11 12
11 1 12 13
12 1 13 14
13 1 14 15
14 1 15 16
15 1 16 17
16 1 17 18
17 1 18 19
18 1 19 20
19 2 21 22
20 2 22 23
21 2 23 24
22 2 24 25
23 2 25 26
24 2 26 27
25 2 27 28
26 2 28 29
27 2 29 30
28 2 31 32
29 2 32 33
30 2 33 34
31 2 34 35
32 2 35 36
33 2 36 37
34 2 37 38
35 2 38 39
36 2 39 40

